<?xml version="1.0" encoding="ISO-8859-1"?>
<modeling>
 <generator>
  <i name="program" type="string">vasp </i>
  <i name="version" type="string">5.4.4.18Apr17-6-g9f103f2a35  </i>
  <i name="subversion" type="string">(build Apr 23 2019 15:17:44) complex            parallel </i>
  <i name="platform" type="string">MareNostrum4 </i>
  <i name="date" type="string">2019 05 10 </i>
  <i name="time" type="string">04:00:11 </i>
 </generator>
 <incar>
  <i type="int" name="ISTART">     0</i>
  <i type="string" name="PREC">normal</i>
  <i type="string" name="ALGO"> NORMAL</i>
  <i type="int" name="ICHARG">     2</i>
  <i type="int" name="INIWAV">     1</i>
  <i type="int" name="NELMIN">     8</i>
  <i type="int" name="IBRION">     2</i>
  <i name="EDIFF">      0.00000100</i>
  <i name="EDIFFG">     -0.01000000</i>
  <i type="int" name="NSW">  1500</i>
  <i name="ENCUT">    450.00000000</i>
  <i name="POTIM">      0.20000000</i>
  <i type="int" name="ISMEAR">     2</i>
  <i name="SIGMA">      0.20000000</i>
  <i type="logical" name="LWAVE"> F  </i>
  <i type="logical" name="LCHARG"> T  </i>
  <v type="int" name="KPOINT_BSE">    -1     0     0     0</v>
  <i type="string" name="GGA"> 91</i>
  <i type="logical" name="LDIPOL"> T  </i>
  <i type="int" name="IDIPOL">     3</i>
 </incar>
 <structure name="primitive_cell" >
  <crystal>
   <varray name="basis" >
    <v>       4.88428255       0.00000000       0.00000000 </v>
    <v>       2.44214127       4.22991277       0.00000000 </v>
    <v>       0.00000000       0.00000000      22.10741862 </v>
   </varray>
   <i name="volume">    456.74123834 </i>
   <varray name="rec_basis" >
    <v>       0.20473836      -0.11820575       0.00000000 </v>
    <v>      -0.00000000       0.23641149       0.00000000 </v>
    <v>       0.00000000       0.00000000       0.04523368 </v>
   </varray>
  </crystal>
  <varray name="positions" >
   <v>       0.30286415       0.49410690       0.00209390 </v>
   <v>      -0.36380252       0.49410690       0.10624323 </v>
   <v>      -0.03046919      -0.17255977       0.10624323 </v>
   <v>      -0.36380252      -0.17255977       0.00209390 </v>
   <v>      -0.03046919       0.16077357       0.00209390 </v>
   <v>       0.30286415       0.16077357       0.10624323 </v>
   <v>      -0.03042093       0.49405396       0.19378167 </v>
   <v>      -0.36384260       0.16077368       0.19378198 </v>
   <v>       0.30285958      -0.17250699       0.19378177 </v>
   <v>       0.30286309       0.49411671       0.28463290 </v>
   <v>      -0.36379408      -0.17256927       0.28463283 </v>
   <v>      -0.03047767       0.16077350       0.28463350 </v>
   <v>      -0.32225945      -0.13633798       0.38338298 </v>
   <v>      -0.15680169       0.03753600       0.39709390 </v>
   <v>       0.05850993      -0.13910920       0.40803909 </v>
  </varray>
 </structure>
 <varray name="primitive_index" >
  <v type="int" >        1 </v>
  <v type="int" >        4 </v>
  <v type="int" >        5 </v>
  <v type="int" >        2 </v>
  <v type="int" >        3 </v>
  <v type="int" >        6 </v>
  <v type="int" >       10 </v>
  <v type="int" >       12 </v>
  <v type="int" >       11 </v>
  <v type="int" >        7 </v>
  <v type="int" >        8 </v>
  <v type="int" >        9 </v>
  <v type="int" >       14 </v>
  <v type="int" >       13 </v>
  <v type="int" >       15 </v>
 </varray>
 <kpoints>
  <generation param="Monkhorst-Pack">
   <v type="int" name="divisions">       8        8        1 </v>
   <v name="usershift">      0.00000000       0.00000000       0.00000000 </v>
   <v name="genvec1">      0.12500000      -0.00000000       0.00000000 </v>
   <v name="genvec2">      0.00000000       0.12500000       0.00000000 </v>
   <v name="genvec3">      0.00000000       0.00000000       1.00000000 </v>
   <v name="shift">      0.50000000       0.50000000       0.00000000 </v>
  </generation>
  <varray name="kpointlist" >
   <v>       0.06250000       0.06250000       0.00000000 </v>
   <v>       0.00000000       0.06250000       0.00000000 </v>
   <v>      -0.06250000       0.00000000       0.00000000 </v>
   <v>       0.18750000       0.06250000       0.00000000 </v>
   <v>       0.12500000       0.18750000       0.00000000 </v>
   <v>      -0.06250000       0.12500000       0.00000000 </v>
   <v>       0.12500000      -0.06250000       0.00000000 </v>
   <v>      -0.06250000      -0.18750000       0.00000000 </v>
   <v>      -0.18750000      -0.12500000       0.00000000 </v>
   <v>       0.31250000       0.06250000       0.00000000 </v>
   <v>       0.25000000       0.31250000       0.00000000 </v>
   <v>      -0.06250000       0.25000000       0.00000000 </v>
   <v>       0.25000000      -0.06250000       0.00000000 </v>
   <v>      -0.06250000      -0.31250000       0.00000000 </v>
   <v>      -0.31250000      -0.25000000       0.00000000 </v>
   <v>       0.43750000       0.06250000       0.00000000 </v>
   <v>       0.37500000       0.43750000       0.00000000 </v>
   <v>      -0.06250000       0.37500000       0.00000000 </v>
   <v>       0.37500000      -0.06250000       0.00000000 </v>
   <v>      -0.06250000      -0.43750000       0.00000000 </v>
   <v>      -0.43750000      -0.37500000       0.00000000 </v>
   <v>      -0.43750000       0.06250000       0.00000000 </v>
   <v>       0.50000000      -0.43750000       0.00000000 </v>
   <v>      -0.06250000       0.50000000       0.00000000 </v>
   <v>       0.50000000      -0.06250000       0.00000000 </v>
   <v>      -0.06250000       0.43750000       0.00000000 </v>
   <v>       0.43750000       0.50000000       0.00000000 </v>
   <v>      -0.31250000       0.06250000       0.00000000 </v>
   <v>      -0.37500000      -0.31250000       0.00000000 </v>
   <v>      -0.06250000      -0.37500000       0.00000000 </v>
   <v>      -0.37500000      -0.06250000       0.00000000 </v>
   <v>      -0.06250000       0.31250000       0.00000000 </v>
   <v>       0.31250000       0.37500000       0.00000000 </v>
   <v>      -0.18750000       0.06250000       0.00000000 </v>
   <v>      -0.25000000      -0.18750000       0.00000000 </v>
   <v>      -0.06250000      -0.25000000       0.00000000 </v>
   <v>      -0.25000000      -0.06250000       0.00000000 </v>
   <v>      -0.06250000       0.18750000       0.00000000 </v>
   <v>       0.18750000       0.25000000       0.00000000 </v>
   <v>      -0.06250000       0.06250000       0.00000000 </v>
   <v>      -0.12500000      -0.06250000       0.00000000 </v>
   <v>      -0.06250000      -0.12500000       0.00000000 </v>
   <v>       0.18750000       0.18750000       0.00000000 </v>
   <v>      -0.00000000       0.18750000       0.00000000 </v>
   <v>      -0.18750000       0.00000000       0.00000000 </v>
   <v>       0.31250000       0.18750000       0.00000000 </v>
   <v>       0.12500000       0.31250000       0.00000000 </v>
   <v>      -0.18750000       0.12500000       0.00000000 </v>
   <v>       0.12500000      -0.18750000       0.00000000 </v>
   <v>      -0.18750000      -0.31250000       0.00000000 </v>
   <v>      -0.31250000      -0.12500000       0.00000000 </v>
   <v>       0.43750000       0.18750000       0.00000000 </v>
   <v>       0.25000000       0.43750000       0.00000000 </v>
   <v>      -0.18750000       0.25000000       0.00000000 </v>
   <v>       0.25000000      -0.18750000       0.00000000 </v>
   <v>      -0.18750000      -0.43750000       0.00000000 </v>
   <v>      -0.43750000      -0.25000000       0.00000000 </v>
   <v>      -0.43750000       0.18750000       0.00000000 </v>
   <v>       0.37500000      -0.43750000       0.00000000 </v>
   <v>      -0.18750000       0.37500000       0.00000000 </v>
   <v>       0.37500000      -0.18750000       0.00000000 </v>
   <v>      -0.18750000       0.43750000       0.00000000 </v>
   <v>       0.43750000      -0.37500000       0.00000000 </v>
   <v>      -0.31250000       0.18750000       0.00000000 </v>
   <v>       0.50000000      -0.31250000       0.00000000 </v>
   <v>      -0.18750000       0.50000000       0.00000000 </v>
   <v>       0.50000000      -0.18750000       0.00000000 </v>
   <v>      -0.18750000       0.31250000       0.00000000 </v>
   <v>       0.31250000       0.50000000       0.00000000 </v>
   <v>      -0.18750000       0.18750000       0.00000000 </v>
   <v>      -0.37500000      -0.18750000       0.00000000 </v>
   <v>      -0.18750000      -0.37500000       0.00000000 </v>
   <v>       0.31250000       0.31250000       0.00000000 </v>
   <v>      -0.00000000       0.31250000       0.00000000 </v>
   <v>      -0.31250000       0.00000000       0.00000000 </v>
   <v>       0.43750000       0.31250000       0.00000000 </v>
   <v>       0.12500000       0.43750000       0.00000000 </v>
   <v>      -0.31250000       0.12500000       0.00000000 </v>
   <v>       0.12500000      -0.31250000       0.00000000 </v>
   <v>      -0.31250000      -0.43750000       0.00000000 </v>
   <v>      -0.43750000      -0.12500000       0.00000000 </v>
   <v>      -0.43750000       0.31250000       0.00000000 </v>
   <v>       0.25000000      -0.43750000       0.00000000 </v>
   <v>      -0.31250000       0.25000000       0.00000000 </v>
   <v>       0.25000000      -0.31250000       0.00000000 </v>
   <v>      -0.31250000       0.43750000       0.00000000 </v>
   <v>       0.43750000      -0.25000000       0.00000000 </v>
   <v>      -0.31250000       0.31250000       0.00000000 </v>
   <v>       0.37500000      -0.31250000       0.00000000 </v>
   <v>      -0.31250000       0.37500000       0.00000000 </v>
   <v>       0.43750000       0.43750000       0.00000000 </v>
   <v>       0.00000000       0.43750000       0.00000000 </v>
   <v>      -0.43750000       0.00000000       0.00000000 </v>
   <v>      -0.43750000       0.43750000       0.00000000 </v>
   <v>       0.12500000      -0.43750000       0.00000000 </v>
   <v>      -0.43750000       0.12500000       0.00000000 </v>
  </varray>
  <varray name="weights" >
   <v>       0.01041667 </v>
   <v>       0.01041667 </v>
   <v>       0.01041667 </v>
   <v>       0.01041667 </v>
   <v>       0.01041667 </v>
   <v>       0.01041667 </v>
   <v>       0.01041667 </v>
   <v>       0.01041667 </v>
   <v>       0.01041667 </v>
   <v>       0.01041667 </v>
   <v>       0.01041667 </v>
   <v>       0.01041667 </v>
   <v>       0.01041667 </v>
   <v>       0.01041667 </v>
   <v>       0.01041667 </v>
   <v>       0.01041667 </v>
   <v>       0.01041667 </v>
   <v>       0.01041667 </v>
   <v>       0.01041667 </v>
   <v>       0.01041667 </v>
   <v>       0.01041667 </v>
   <v>       0.01041667 </v>
   <v>       0.01041667 </v>
   <v>       0.01041667 </v>
   <v>       0.01041667 </v>
   <v>       0.01041667 </v>
   <v>       0.01041667 </v>
   <v>       0.01041667 </v>
   <v>       0.01041667 </v>
   <v>       0.01041667 </v>
   <v>       0.01041667 </v>
   <v>       0.01041667 </v>
   <v>       0.01041667 </v>
   <v>       0.01041667 </v>
   <v>       0.01041667 </v>
   <v>       0.01041667 </v>
   <v>       0.01041667 </v>
   <v>       0.01041667 </v>
   <v>       0.01041667 </v>
   <v>       0.01041667 </v>
   <v>       0.01041667 </v>
   <v>       0.01041667 </v>
   <v>       0.01041667 </v>
   <v>       0.01041667 </v>
   <v>       0.01041667 </v>
   <v>       0.01041667 </v>
   <v>       0.01041667 </v>
   <v>       0.01041667 </v>
   <v>       0.01041667 </v>
   <v>       0.01041667 </v>
   <v>       0.01041667 </v>
   <v>       0.01041667 </v>
   <v>       0.01041667 </v>
   <v>       0.01041667 </v>
   <v>       0.01041667 </v>
   <v>       0.01041667 </v>
   <v>       0.01041667 </v>
   <v>       0.01041667 </v>
   <v>       0.01041667 </v>
   <v>       0.01041667 </v>
   <v>       0.01041667 </v>
   <v>       0.01041667 </v>
   <v>       0.01041667 </v>
   <v>       0.01041667 </v>
   <v>       0.01041667 </v>
   <v>       0.01041667 </v>
   <v>       0.01041667 </v>
   <v>       0.01041667 </v>
   <v>       0.01041667 </v>
   <v>       0.01041667 </v>
   <v>       0.01041667 </v>
   <v>       0.01041667 </v>
   <v>       0.01041667 </v>
   <v>       0.01041667 </v>
   <v>       0.01041667 </v>
   <v>       0.01041667 </v>
   <v>       0.01041667 </v>
   <v>       0.01041667 </v>
   <v>       0.01041667 </v>
   <v>       0.01041667 </v>
   <v>       0.01041667 </v>
   <v>       0.01041667 </v>
   <v>       0.01041667 </v>
   <v>       0.01041667 </v>
   <v>       0.01041667 </v>
   <v>       0.01041667 </v>
   <v>       0.01041667 </v>
   <v>       0.01041667 </v>
   <v>       0.01041667 </v>
   <v>       0.01041667 </v>
   <v>       0.01041667 </v>
   <v>       0.01041667 </v>
   <v>       0.01041667 </v>
   <v>       0.01041667 </v>
   <v>       0.01041667 </v>
   <v>       0.01041667 </v>
  </varray>
 </kpoints>
 <parameters>
  <separator name="general" >
   <i type="string" name="SYSTEM">unknown system</i>
   <i type="logical" name="LCOMPAT"> F  </i>
  </separator>
  <separator name="electronic" >
   <i type="string" name="PREC">normal</i>
   <i name="ENMAX">    450.00000000</i>
   <i name="ENAUG">    605.39200000</i>
   <i name="EDIFF">      0.00000100</i>
   <i type="int" name="IALGO">    38</i>
   <i type="int" name="IWAVPR">    11</i>
   <i type="int" name="NBANDS">    78</i>
   <i name="NELECT">    130.00000000</i>
   <i type="int" name="TURBO">     0</i>
   <i type="int" name="IRESTART">     0</i>
   <i type="int" name="NREBOOT">     0</i>
   <i type="int" name="NMIN">     0</i>
   <i name="EREF">      0.00000000</i>
   <separator name="electronic smearing" >
    <i type="int" name="ISMEAR">     2</i>
    <i name="SIGMA">      0.20000000</i>
    <i name="KSPACING">      0.50000000</i>
    <i type="logical" name="KGAMMA"> T  </i>
   </separator>
   <separator name="electronic projectors" >
    <i type="logical" name="LREAL"> F  </i>
    <v name="ROPT">      0.00000000      0.00000000      0.00000000      0.00000000</v>
    <i type="int" name="LMAXPAW">  -100</i>
    <i type="int" name="LMAXMIX">     2</i>
    <i type="logical" name="NLSPLINE"> F  </i>
   </separator>
   <separator name="electronic startup" >
    <i type="int" name="ISTART">     0</i>
    <i type="int" name="ICHARG">     2</i>
    <i type="int" name="INIWAV">     1</i>
   </separator>
   <separator name="electronic spin" >
    <i type="int" name="ISPIN">     1</i>
    <i type="logical" name="LNONCOLLINEAR"> F  </i>
    <v name="MAGMOM">      1.00000000      1.00000000      1.00000000      1.00000000      1.00000000      1.00000000      1.00000000      1.00000000      1.00000000      1.00000000      1.00000000      1.00000000      1.00000000      1.00000000      1.00000000</v>
    <i name="NUPDOWN">     -1.00000000</i>
    <i type="logical" name="LSORBIT"> F  </i>
    <v name="SAXIS">      0.00000000      0.00000000      1.00000000</v>
    <i type="logical" name="LSPIRAL"> F  </i>
    <v name="QSPIRAL">      0.00000000      0.00000000      0.00000000</v>
    <i type="logical" name="LZEROZ"> F  </i>
   </separator>
   <separator name="electronic exchange-correlation" >
    <i type="logical" name="LASPH"> F  </i>
    <i type="logical" name="LMETAGGA"> F  </i>
   </separator>
   <separator name="electronic convergence" >
    <i type="int" name="NELM">    60</i>
    <i type="int" name="NELMDL">    -5</i>
    <i type="int" name="NELMIN">     8</i>
    <i name="ENINI">    450.00000000</i>
    <separator name="electronic convergence detail" >
     <i type="logical" name="LDIAG"> T  </i>
     <i type="logical" name="LSUBROT"> F  </i>
     <i name="WEIMIN">      0.00100000</i>
     <i name="EBREAK">      0.00000000</i>
     <i name="DEPER">      0.30000000</i>
     <i type="int" name="NRMM">     4</i>
     <i name="TIME">      0.40000000</i>
    </separator>
   </separator>
   <separator name="electronic mixer" >
    <i name="AMIX">      0.40000000</i>
    <i name="BMIX">      1.00000000</i>
    <i name="AMIN">      0.10000000</i>
    <i name="AMIX_MAG">      1.60000000</i>
    <i name="BMIX_MAG">      1.00000000</i>
    <separator name="electronic mixer details" >
     <i type="int" name="IMIX">     4</i>
     <i type="logical" name="MIXFIRST"> F  </i>
     <i type="int" name="MAXMIX">   -45</i>
     <i name="WC">    100.00000000</i>
     <i type="int" name="INIMIX">     1</i>
     <i type="int" name="MIXPRE">     1</i>
     <i type="int" name="MREMOVE">     5</i>
    </separator>
   </separator>
   <separator name="electronic dipolcorrection" >
    <i type="logical" name="LDIPOL"> T  </i>
    <i type="logical" name="LMONO"> F  </i>
    <i type="int" name="IDIPOL">     3</i>
    <i name="EPSILON">      1.00000000</i>
    <v name="DIPOL">   -100.00000000   -100.00000000   -100.00000000</v>
    <i name="EFIELD">      0.00000000</i>
   </separator>
  </separator>
  <separator name="grids" >
   <i type="int" name="NGX">    28</i>
   <i type="int" name="NGY">    28</i>
   <i type="int" name="NGZ">   120</i>
   <i type="int" name="NGXF">    56</i>
   <i type="int" name="NGYF">    56</i>
   <i type="int" name="NGZF">   240</i>
   <i type="logical" name="ADDGRID"> F  </i>
  </separator>
  <separator name="ionic" >
   <i type="int" name="NSW">  1500</i>
   <i type="int" name="IBRION">     2</i>
   <i type="int" name="MDALGO">     0</i>
   <i type="int" name="ISIF">     2</i>
   <i name="PSTRESS">      0.00000000</i>
   <i name="EDIFFG">     -0.01000000</i>
   <i type="int" name="NFREE">     1</i>
   <i name="POTIM">      0.20000000</i>
   <i name="SMASS">     -3.00000000</i>
   <i name="SCALEE">      1.00000000</i>
  </separator>
  <separator name="ionic md" >
   <i name="TEBEG">      0.00010000</i>
   <i name="TEEND">      0.00010000</i>
   <i type="int" name="NBLOCK">     1</i>
   <i type="int" name="KBLOCK">  1500</i>
   <i type="int" name="NPACO">   256</i>
   <i name="APACO">     16.00000000</i>
  </separator>
  <separator name="symmetry" >
   <i type="int" name="ISYM">     2</i>
   <i name="SYMPREC">      0.00001000</i>
  </separator>
  <separator name="dos" >
   <i type="int" name="LORBIT">     0</i>
   <v name="RWIGS">     -1.00000000     -1.00000000     -1.00000000     -1.00000000</v>
   <i type="int" name="NEDOS">   301</i>
   <i name="EMIN">     10.00000000</i>
   <i name="EMAX">    -10.00000000</i>
   <i name="EFERMI">      0.00000000</i>
  </separator>
  <separator name="writing" >
   <i type="int" name="NWRITE">     2</i>
   <i type="logical" name="LWAVE"> F  </i>
   <i type="logical" name="LDOWNSAMPLE"> F  </i>
   <i type="logical" name="LCHARG"> T  </i>
   <i type="logical" name="LPARD"> F  </i>
   <i type="logical" name="LVTOT"> F  </i>
   <i type="logical" name="LVHAR"> F  </i>
   <i type="logical" name="LELF"> F  </i>
   <i type="logical" name="LOPTICS"> F  </i>
   <v name="STM">      0.00000000      0.00000000      0.00000000      0.00000000      0.00000000      0.00000000      0.00000000</v>
  </separator>
  <separator name="performance" >
   <i type="int" name="NPAR">     2</i>
   <i type="int" name="NSIM">     4</i>
   <i type="int" name="NBLK">    -1</i>
   <i type="logical" name="LPLANE"> T  </i>
   <i type="logical" name="LSCALAPACK"> T  </i>
   <i type="logical" name="LSCAAWARE"> F  </i>
   <i type="logical" name="LSCALU"> F  </i>
   <i type="logical" name="LASYNC"> F  </i>
   <i type="logical" name="LORBITALREAL"> F  </i>
  </separator>
  <separator name="miscellaneous" >
   <i type="int" name="IDIOT">     3</i>
   <i type="int" name="ISPECIAL">     0</i>
   <i type="logical" name="LMUSIC"> F  </i>
   <v name="POMASS">    195.08000000     58.93300000     16.00000000      1.00000000</v>
   <v name="DARWINR">      0.00000000      0.00000000      0.00000000      0.00000000</v>
   <v name="DARWINV">      1.00000000      1.00000000      1.00000000      1.00000000</v>
   <i type="logical" name="LCORR"> T  </i>
  </separator>
  <i type="logical" name="GGA_COMPAT"> T  </i>
  <i type="logical" name="LBERRY"> F  </i>
  <i type="int" name="ICORELEVEL">     0</i>
  <i type="logical" name="LDAU"> F  </i>
  <i type="int" name="I_CONSTRAINED_M">     0</i>
  <separator name="electronic exchange-correlation" >
   <i type="string" name="GGA">91</i>
   <i type="int" name="VOSKOWN">     0</i>
   <i type="logical" name="LHFCALC"> F  </i>
   <i type="string" name="PRECFOCK"></i>
   <i type="logical" name="LSYMGRAD"> F  </i>
   <i type="logical" name="LHFONE"> F  </i>
   <i type="logical" name="LRHFCALC"> F  </i>
   <i type="logical" name="LTHOMAS"> F  </i>
   <i type="logical" name="LMODELHF"> F  </i>
   <i name="ENCUT4O">     -1.00000000</i>
   <i type="int" name="EXXOEP">     0</i>
   <i type="int" name="FOURORBIT">     0</i>
   <i name="AEXX">      0.00000000</i>
   <i name="HFALPHA">      0.00000000</i>
   <i name="MCALPHA">      0.00000000</i>
   <i name="ALDAX">      1.00000000</i>
   <i name="AGGAX">      1.00000000</i>
   <i name="ALDAC">      1.00000000</i>
   <i name="AGGAC">      1.00000000</i>
   <i type="int" name="NKREDX">     1</i>
   <i type="int" name="NKREDY">     1</i>
   <i type="int" name="NKREDZ">     1</i>
   <i type="logical" name="SHIFTRED"> F  </i>
   <i type="logical" name="ODDONLY"> F  </i>
   <i type="logical" name="EVENONLY"> F  </i>
   <i type="int" name="LMAXFOCK">     0</i>
   <i type="int" name="NMAXFOCKAE">     0</i>
   <i type="logical" name="LFOCKAEDFT"> F  </i>
   <i name="HFSCREEN">      0.00000000</i>
   <i name="HFSCREENC">      0.00000000</i>
   <i type="int" name="NBANDSGWLOW">     0</i>
  </separator>
  <separator name="vdW DFT" >
   <i type="logical" name="LUSE_VDW"> F  </i>
   <i name="Zab_VDW">     -0.84910000</i>
   <i name="PARAM1">      0.12340000</i>
   <i name="PARAM2">      1.00000000</i>
   <i name="PARAM3">      0.00000000</i>
  </separator>
  <separator name="model GW" >
   <i type="int" name="MODEL_GW">     0</i>
   <i name="MODEL_EPS0">     18.26964953</i>
   <i name="MODEL_ALPHA">      1.00000000</i>
  </separator>
  <separator name="linear response parameters" >
   <i type="logical" name="LEPSILON"> F  </i>
   <i type="logical" name="LRPA"> F  </i>
   <i type="logical" name="LNABLA"> F  </i>
   <i type="logical" name="LVEL"> F  </i>
   <i type="int" name="KINTER">     0</i>
   <i name="CSHIFT">      0.10000000</i>
   <i name="OMEGAMAX">     -1.00000000</i>
   <i name="DEG_THRESHOLD">      0.00200000</i>
   <i name="RTIME">     -0.10000000</i>
   <i name="WPLASMAI">      0.00000000</i>
   <v name="DFIELD">      0.00000000      0.00000000      0.00000000</v>
   <v name="WPLASMA">      0.00000000      0.00000000      0.00000000      0.00000000      0.00000000      0.00000000      0.00000000      0.00000000      0.00000000</v>
  </separator>
  <separator name="orbital magnetization" >
   <i type="logical" name="NUCIND"> F  </i>
   <v name="MAGPOS">      0.00000000      0.00000000      0.00000000</v>
   <i type="logical" name="LNICSALL"> T  </i>
   <i type="logical" name="ORBITALMAG"> F  </i>
   <i type="logical" name="LMAGBLOCH"> F  </i>
   <i type="logical" name="LCHIMAG"> F  </i>
   <i type="logical" name="LGAUGE"> T  </i>
   <i type="int" name="MAGATOM">     0</i>
   <v name="MAGDIPOL">      0.00000000      0.00000000      0.00000000</v>
   <v name="AVECCONST">      0.00000000      0.00000000      0.00000000</v>
  </separator>
  <separator name="response functions" >
   <i type="logical" name="LADDER"> F  </i>
   <i type="logical" name="LRPAFORCE"> F  </i>
   <i type="logical" name="LFXC"> F  </i>
   <i type="logical" name="LHARTREE"> T  </i>
   <i type="int" name="IBSE">     0</i>
   <v type="int" name="KPOINT">    -1     0     0     0</v>
   <i type="logical" name="LTCTE"> F  </i>
   <i type="logical" name="LTETE"> F  </i>
   <i type="logical" name="LTRIPLET"> F  </i>
   <i type="logical" name="LFXCEPS"> F  </i>
   <i type="logical" name="LFXHEG"> F  </i>
   <i type="int" name="NATURALO">     2</i>
   <i type="logical" name="L2ORDER"> F  </i>
   <i type="logical" name="LMP2LT"> F  </i>
   <i type="logical" name="LUSEW"> F  </i>
   <i name="ENCUTGW">     -2.00000000</i>
   <i name="ENCUTGWSOFT">     -2.00000000</i>
   <i name="ENCUTLF">     -1.00000000</i>
   <i type="int" name="LMAXMP2">    -1</i>
   <i name="SCISSOR">      0.00000000</i>
   <i type="int" name="NOMEGA">     0</i>
   <i type="int" name="NOMEGAR">     0</i>
   <i type="int" name="NBANDSGW">    -1</i>
   <i type="int" name="NBANDSO">    -1</i>
   <i type="int" name="NBANDSV">    -1</i>
   <i type="int" name="NELM">     1</i>
   <i type="int" name="NELMHF">     1</i>
   <i type="int" name="DIM">     3</i>
   <i type="int" name="ANTIRES">     0</i>
   <i name="OMEGAMAX">    -30.00000000</i>
   <i name="OMEGAMIN">    -30.00000000</i>
   <i name="OMEGATL">   -200.00000000</i>
   <i type="int" name="OMEGAGRID">   140</i>
   <i name="CSHIFT">     -0.10000000</i>
   <i type="logical" name="SELFENERGY"> F  </i>
   <i type="logical" name="LSPECTRAL"> F  </i>
   <i type="logical" name="LSPECTRALGW"> F  </i>
   <i type="logical" name="LSINGLES"> F  </i>
   <i type="logical" name="LFERMIGW"> F  </i>
   <i type="logical" name="ODDONLYGW"> F  </i>
   <i type="logical" name="EVENONLYGW"> F  </i>
   <i type="int" name="NKREDLFX">     1</i>
   <i type="int" name="NKREDLFY">     1</i>
   <i type="int" name="NKREDLFZ">     1</i>
   <i type="int" name="MAXMEM">  2800</i>
   <i type="int" name="TELESCOPE">     0</i>
   <i type="int" name="TAUPAR">     1</i>
   <i type="int" name="OMEGAPAR">    -1</i>
   <i name="LAMBDA">      1.00000000</i>
  </separator>
  <separator name="External order field" >
   <i name="OFIELD_KAPPA">      0.00000000</i>
   <v name="OFIELD_K">      0.00000000      0.00000000      0.00000000</v>
   <i name="OFIELD_Q6_NEAR">      0.00000000</i>
   <i name="OFIELD_Q6_FAR">      0.00000000</i>
   <i name="OFIELD_A">      0.00000000</i>
  </separator>
 </parameters>
 <atominfo>
  <atoms>      15 </atoms>
  <types>       4 </types>
  <array name="atoms" >
   <dimension dim="1">ion</dimension>
   <field type="string">element</field>
   <field type="int">atomtype</field>
   <set>
    <rc><c>Pt</c><c>   1</c></rc>
    <rc><c>Pt</c><c>   1</c></rc>
    <rc><c>Pt</c><c>   1</c></rc>
    <rc><c>Pt</c><c>   1</c></rc>
    <rc><c>Pt</c><c>   1</c></rc>
    <rc><c>Pt</c><c>   1</c></rc>
    <rc><c>Pt</c><c>   1</c></rc>
    <rc><c>Pt</c><c>   1</c></rc>
    <rc><c>Pt</c><c>   1</c></rc>
    <rc><c>Co</c><c>   2</c></rc>
    <rc><c>Co</c><c>   2</c></rc>
    <rc><c>Co</c><c>   2</c></rc>
    <rc><c>O </c><c>   3</c></rc>
    <rc><c>O </c><c>   3</c></rc>
    <rc><c>H </c><c>   4</c></rc>
   </set>
  </array>
  <array name="atomtypes" >
   <dimension dim="1">type</dimension>
   <field type="int">atomspertype</field>
   <field type="string">element</field>
   <field>mass</field>
   <field>valence</field>
   <field type="string">pseudopotential</field>
   <set>
    <rc><c>   9</c><c>Pt</c><c>    195.08000000</c><c>     10.00000000</c><c> PAW_PBE Pt 05Jan2001                   </c></rc>
    <rc><c>   3</c><c>Co</c><c>     58.93300000</c><c>      9.00000000</c><c> PAW_PBE Co 06Sep2000                   </c></rc>
    <rc><c>   2</c><c>O </c><c>     16.00000000</c><c>      6.00000000</c><c> PAW_PBE O 08Apr2002                    </c></rc>
    <rc><c>   1</c><c>H </c><c>      1.00000000</c><c>      1.00000000</c><c> PAW_PBE H 15Jun2001                    </c></rc>
   </set>
  </array>
 </atominfo>
 <structure name="initialpos" >
  <crystal>
   <varray name="basis" >
    <v>       4.88428255       0.00000000       0.00000000 </v>
    <v>       2.44214127       4.22991277       0.00000000 </v>
    <v>       0.00000000       0.00000000      22.10741862 </v>
   </varray>
   <i name="volume">    456.74123834 </i>
   <varray name="rec_basis" >
    <v>       0.20473836      -0.11820575       0.00000000 </v>
    <v>      -0.00000000       0.23641149       0.00000000 </v>
    <v>       0.00000000       0.00000000       0.04523368 </v>
   </varray>
  </crystal>
  <varray name="positions" >
   <v>       0.30286415       0.49410690       0.00209390 </v>
   <v>       0.63619748       0.82744023       0.00209390 </v>
   <v>       0.96953081       0.16077357       0.00209390 </v>
   <v>       0.63619748       0.49410690       0.10624323 </v>
   <v>       0.96953081       0.82744023       0.10624323 </v>
   <v>       0.30286415       0.16077357       0.10624323 </v>
   <v>       0.30286309       0.49411671       0.28463290 </v>
   <v>       0.63620592       0.82743073       0.28463283 </v>
   <v>       0.96952233       0.16077350       0.28463350 </v>
   <v>       0.96957907       0.49405396       0.19378167 </v>
   <v>       0.30285958       0.82749301       0.19378177 </v>
   <v>       0.63615740       0.16077368       0.19378198 </v>
   <v>       0.84319831       0.03753600       0.39709390 </v>
   <v>       0.67774055       0.86366202       0.38338298 </v>
   <v>       0.05850993       0.86089080       0.40803909 </v>
  </varray>
  <varray name="selective"  type="logical" >
   <v type="logical" >  F  F  F </v>
   <v type="logical" >  F  F  F </v>
   <v type="logical" >  F  F  F </v>
   <v type="logical" >  F  F  F </v>
   <v type="logical" >  F  F  F </v>
   <v type="logical" >  F  F  F </v>
   <v type="logical" >  T  T  T </v>
   <v type="logical" >  T  T  T </v>
   <v type="logical" >  T  T  T </v>
   <v type="logical" >  T  T  T </v>
   <v type="logical" >  T  T  T </v>
   <v type="logical" >  T  T  T </v>
   <v type="logical" >  T  T  T </v>
   <v type="logical" >  T  T  T </v>
   <v type="logical" >  T  T  T </v>
  </varray>
  <nose>
   <v>      -3.00000000       0.00000000       0.00010000       0.00010000 </v>
  </nose>
 </structure>
 <calculation>
  <scstep>
   <time name="dav">    7.17    7.26</time>
   <time name="total">    7.22    7.35</time>
   <dipole>
    <v name="dipole">      0.00000000       0.00000000      -0.00005547 </v>
    <i name="Tr[quadrupol]">   -519.85810983 </i>
    <i name="Echarged">      0.00000000 </i>
    <i name="Edipol_quadrupol">      0.00000000 </i>
    <i name="Eion">      0.00000000 </i>
   </dipole>
   <energy>
    <i name="alphaZ">    471.55410703 </i>
    <i name="ewald">  34336.50975780 </i>
    <i name="hartreedc"> -44546.28438370 </i>
    <i name="XCdc">    133.79791937 </i>
    <i name="pawpsdc">   7556.94873657 </i>
    <i name="pawaedc">  -7466.17675392 </i>
    <i name="eentropy">      0.00050368 </i>
    <i name="bandstr">    939.35159466 </i>
    <i name="atom">   9881.90737187 </i>
    <i name="e_fr_energy">   1307.60885334 </i>
    <i name="e_wo_entrp">   1307.60834966 </i>
    <i name="e_0_energy">   1307.60872742 </i>
   </energy>
  </scstep>
  <scstep>
   <time name="dav">    7.15    7.18</time>
   <time name="total">    7.16    7.19</time>
   <dipole>
    <v name="dipole">      0.00000000       0.00000000      -0.00005547 </v>
    <i name="Tr[quadrupol]">   -519.85810983 </i>
    <i name="Echarged">      0.00000000 </i>
    <i name="Edipol_quadrupol">      0.00000000 </i>
    <i name="Eion">      0.00000000 </i>
   </dipole>
   <energy>
    <i name="e_fr_energy">     93.28605974 </i>
    <i name="e_wo_entrp">     93.28483574 </i>
    <i name="e_0_energy">     93.28575374 </i>
   </energy>
  </scstep>
  <scstep>
   <time name="dav">    9.43    9.43</time>
   <time name="total">    9.44    9.45</time>
   <dipole>
    <v name="dipole">      0.00000000       0.00000000      -0.00005547 </v>
    <i name="Tr[quadrupol]">   -519.85810983 </i>
    <i name="Echarged">      0.00000000 </i>
    <i name="Edipol_quadrupol">      0.00000000 </i>
    <i name="Eion">      0.00000000 </i>
   </dipole>
   <energy>
    <i name="e_fr_energy">    -79.80744510 </i>
    <i name="e_wo_entrp">    -79.80598514 </i>
    <i name="e_0_energy">    -79.80708011 </i>
   </energy>
  </scstep>
  <scstep>
   <time name="dav">    9.04    9.05</time>
   <time name="total">    9.06    9.06</time>
   <dipole>
    <v name="dipole">      0.00000000       0.00000000      -0.00005547 </v>
    <i name="Tr[quadrupol]">   -519.85810983 </i>
    <i name="Echarged">      0.00000000 </i>
    <i name="Edipol_quadrupol">      0.00000000 </i>
    <i name="Eion">      0.00000000 </i>
   </dipole>
   <energy>
    <i name="e_fr_energy">    -95.59827330 </i>
    <i name="e_wo_entrp">    -95.59052925 </i>
    <i name="e_0_energy">    -95.59633729 </i>
   </energy>
  </scstep>
  <scstep>
   <time name="dav">    9.58    9.59</time>
   <time name="total">   10.07   10.08</time>
   <dipole>
    <v name="dipole">      0.00000000       0.00000000      -0.00005547 </v>
    <i name="Tr[quadrupol]">   -519.85810983 </i>
    <i name="Echarged">      0.00000000 </i>
    <i name="Edipol_quadrupol">      0.00000000 </i>
    <i name="Eion">      0.00000000 </i>
   </dipole>
   <energy>
    <i name="e_fr_energy">    -96.14057472 </i>
    <i name="e_wo_entrp">    -96.13224732 </i>
    <i name="e_0_energy">    -96.13849287 </i>
   </energy>
  </scstep>
  <scstep>
   <time name="dav">    9.55    9.61</time>
   <time name="total">   10.04   10.11</time>
   <dipole>
    <v name="dipole">      0.00000000       0.00000000       0.23209899 </v>
    <i name="Tr[quadrupol]">   -517.98224586 </i>
    <i name="Echarged">      0.00000000 </i>
    <i name="Edipol_quadrupol">      0.00000000 </i>
    <i name="Eion">      0.00000000 </i>
   </dipole>
   <energy>
    <i name="e_fr_energy">   -107.81528672 </i>
    <i name="e_wo_entrp">   -107.78203037 </i>
    <i name="e_0_energy">   -107.80697263 </i>
   </energy>
  </scstep>
  <scstep>
   <time name="dav">    9.69    9.69</time>
   <time name="total">   10.18   10.19</time>
   <dipole>
    <v name="dipole">      0.00000000       0.00000000      -0.16703001 </v>
    <i name="Tr[quadrupol]">   -521.10637464 </i>
    <i name="Echarged">      0.00000000 </i>
    <i name="Edipol_quadrupol">      0.00000000 </i>
    <i name="Eion">      0.00000000 </i>
   </dipole>
   <energy>
    <i name="e_fr_energy">    -94.16279132 </i>
    <i name="e_wo_entrp">    -94.15634977 </i>
    <i name="e_0_energy">    -94.16118093 </i>
   </energy>
  </scstep>
  <scstep>
   <time name="dav">   10.35   10.37</time>
   <time name="total">   10.84   10.87</time>
   <dipole>
    <v name="dipole">      0.00000000       0.00000000      -0.40273484 </v>
    <i name="Tr[quadrupol]">   -519.72805695 </i>
    <i name="Echarged">      0.00000000 </i>
    <i name="Edipol_quadrupol">      0.00000000 </i>
    <i name="Eion">      0.00000000 </i>
   </dipole>
   <energy>
    <i name="e_fr_energy">   -100.12469857 </i>
    <i name="e_wo_entrp">   -100.12153601 </i>
    <i name="e_0_energy">   -100.12390793 </i>
   </energy>
  </scstep>
  <scstep>
   <time name="dav">   11.16   11.16</time>
   <time name="total">   11.65   11.65</time>
   <dipole>
    <v name="dipole">      0.00000000       0.00000000       0.09023901 </v>
    <i name="Tr[quadrupol]">   -520.90082516 </i>
    <i name="Echarged">      0.00000000 </i>
    <i name="Edipol_quadrupol">      0.00000000 </i>
    <i name="Eion">      0.00000000 </i>
   </dipole>
   <energy>
    <i name="e_fr_energy">    -91.19360089 </i>
    <i name="e_wo_entrp">    -91.21303995 </i>
    <i name="e_0_energy">    -91.19846066 </i>
   </energy>
  </scstep>
  <scstep>
   <time name="dav">    9.92    9.92</time>
   <time name="total">   10.41   10.42</time>
   <dipole>
    <v name="dipole">      0.00000000       0.00000000      -0.06265358 </v>
    <i name="Tr[quadrupol]">   -520.39796449 </i>
    <i name="Echarged">      0.00000000 </i>
    <i name="Edipol_quadrupol">      0.00000000 </i>
    <i name="Eion">      0.00000000 </i>
   </dipole>
   <energy>
    <i name="e_fr_energy">    -88.59339468 </i>
    <i name="e_wo_entrp">    -88.59552851 </i>
    <i name="e_0_energy">    -88.59392813 </i>
   </energy>
  </scstep>
  <scstep>
   <time name="dav">    9.84    9.86</time>
   <time name="total">   10.34   10.35</time>
   <dipole>
    <v name="dipole">      0.00000000       0.00000000      -0.07053685 </v>
    <i name="Tr[quadrupol]">   -520.15233423 </i>
    <i name="Echarged">      0.00000000 </i>
    <i name="Edipol_quadrupol">      0.00000000 </i>
    <i name="Eion">      0.00000000 </i>
   </dipole>
   <energy>
    <i name="e_fr_energy">    -87.30009627 </i>
    <i name="e_wo_entrp">    -87.29926288 </i>
    <i name="e_0_energy">    -87.29988792 </i>
   </energy>
  </scstep>
  <scstep>
   <time name="dav">    9.78    9.78</time>
   <time name="total">   10.27   10.28</time>
   <dipole>
    <v name="dipole">      0.00000000       0.00000000      -0.04272479 </v>
    <i name="Tr[quadrupol]">   -520.27077202 </i>
    <i name="Echarged">      0.00000000 </i>
    <i name="Edipol_quadrupol">      0.00000000 </i>
    <i name="Eion">      0.00000000 </i>
   </dipole>
   <energy>
    <i name="e_fr_energy">    -86.80324536 </i>
    <i name="e_wo_entrp">    -86.79860176 </i>
    <i name="e_0_energy">    -86.80208446 </i>
   </energy>
  </scstep>
  <scstep>
   <time name="dav">   12.33   12.34</time>
   <time name="total">   12.98   12.99</time>
   <dipole>
    <v name="dipole">      0.00000000       0.00000000      -0.04201235 </v>
    <i name="Tr[quadrupol]">   -520.29022230 </i>
    <i name="Echarged">      0.00000000 </i>
    <i name="Edipol_quadrupol">      0.00000000 </i>
    <i name="Eion">      0.00000000 </i>
   </dipole>
   <energy>
    <i name="e_fr_energy">    -86.97110938 </i>
    <i name="e_wo_entrp">    -86.95215575 </i>
    <i name="e_0_energy">    -86.96637097 </i>
   </energy>
  </scstep>
  <scstep>
   <time name="dav">   10.32   10.33</time>
   <time name="total">   10.81   10.81</time>
   <dipole>
    <v name="dipole">      0.00000000       0.00000000      -0.02757946 </v>
    <i name="Tr[quadrupol]">   -520.47059920 </i>
    <i name="Echarged">      0.00000000 </i>
    <i name="Edipol_quadrupol">      0.00000000 </i>
    <i name="Eion">      0.00000000 </i>
   </dipole>
   <energy>
    <i name="e_fr_energy">    -86.81683218 </i>
    <i name="e_wo_entrp">    -86.82300708 </i>
    <i name="e_0_energy">    -86.81837591 </i>
   </energy>
  </scstep>
  <scstep>
   <time name="dav">   11.68   11.68</time>
   <time name="total">   12.17   12.18</time>
   <dipole>
    <v name="dipole">      0.00000000       0.00000000       0.00383728 </v>
    <i name="Tr[quadrupol]">   -520.43038143 </i>
    <i name="Echarged">      0.00000000 </i>
    <i name="Edipol_quadrupol">      0.00000000 </i>
    <i name="Eion">      0.00000000 </i>
   </dipole>
   <energy>
    <i name="e_fr_energy">    -86.54436055 </i>
    <i name="e_wo_entrp">    -86.54038990 </i>
    <i name="e_0_energy">    -86.54336789 </i>
   </energy>
  </scstep>
  <scstep>
   <time name="dav">    9.71    9.72</time>
   <time name="total">   10.21   10.22</time>
   <dipole>
    <v name="dipole">      0.00000000       0.00000000       0.01278284 </v>
    <i name="Tr[quadrupol]">   -520.52696187 </i>
    <i name="Echarged">      0.00000000 </i>
    <i name="Edipol_quadrupol">      0.00000000 </i>
    <i name="Eion">      0.00000000 </i>
   </dipole>
   <energy>
    <i name="e_fr_energy">    -86.45774569 </i>
    <i name="e_wo_entrp">    -86.44933518 </i>
    <i name="e_0_energy">    -86.45564306 </i>
   </energy>
  </scstep>
  <scstep>
   <time name="dav">   10.07   10.09</time>
   <time name="total">   10.56   10.58</time>
   <dipole>
    <v name="dipole">      0.00000000       0.00000000       0.02659570 </v>
    <i name="Tr[quadrupol]">   -520.51089440 </i>
    <i name="Echarged">      0.00000000 </i>
    <i name="Edipol_quadrupol">      0.00000000 </i>
    <i name="Eion">      0.00000000 </i>
   </dipole>
   <energy>
    <i name="e_fr_energy">    -86.44880558 </i>
    <i name="e_wo_entrp">    -86.43493775 </i>
    <i name="e_0_energy">    -86.44533862 </i>
   </energy>
  </scstep>
  <scstep>
   <time name="dav">    9.28    9.29</time>
   <time name="total">    9.78    9.78</time>
   <dipole>
    <v name="dipole">      0.00000000       0.00000000       0.01869625 </v>
    <i name="Tr[quadrupol]">   -520.53195556 </i>
    <i name="Echarged">      0.00000000 </i>
    <i name="Edipol_quadrupol">      0.00000000 </i>
    <i name="Eion">      0.00000000 </i>
   </dipole>
   <energy>
    <i name="e_fr_energy">    -86.44630429 </i>
    <i name="e_wo_entrp">    -86.43517022 </i>
    <i name="e_0_energy">    -86.44352077 </i>
   </energy>
  </scstep>
  <scstep>
   <time name="dav">    9.58    9.59</time>
   <time name="total">   10.08   10.09</time>
   <dipole>
    <v name="dipole">      0.00000000       0.00000000       0.01795762 </v>
    <i name="Tr[quadrupol]">   -520.52727232 </i>
    <i name="Echarged">      0.00000000 </i>
    <i name="Edipol_quadrupol">      0.00000000 </i>
    <i name="Eion">      0.00000000 </i>
   </dipole>
   <energy>
    <i name="e_fr_energy">    -86.44207963 </i>
    <i name="e_wo_entrp">    -86.43104747 </i>
    <i name="e_0_energy">    -86.43932159 </i>
   </energy>
  </scstep>
  <scstep>
   <time name="dav">    9.77    9.77</time>
   <time name="total">   10.26   10.26</time>
   <dipole>
    <v name="dipole">      0.00000000       0.00000000       0.01318653 </v>
    <i name="Tr[quadrupol]">   -520.55894223 </i>
    <i name="Echarged">      0.00000000 </i>
    <i name="Edipol_quadrupol">      0.00000000 </i>
    <i name="Eion">      0.00000000 </i>
   </dipole>
   <energy>
    <i name="e_fr_energy">    -86.44092906 </i>
    <i name="e_wo_entrp">    -86.42896076 </i>
    <i name="e_0_energy">    -86.43793699 </i>
   </energy>
  </scstep>
  <scstep>
   <time name="dav">    9.75    9.75</time>
   <time name="total">   10.23   10.24</time>
   <dipole>
    <v name="dipole">      0.00000000       0.00000000       0.01267894 </v>
    <i name="Tr[quadrupol]">   -520.58870298 </i>
    <i name="Echarged">      0.00000000 </i>
    <i name="Edipol_quadrupol">      0.00000000 </i>
    <i name="Eion">      0.00000000 </i>
   </dipole>
   <energy>
    <i name="e_fr_energy">    -86.44026966 </i>
    <i name="e_wo_entrp">    -86.42826260 </i>
    <i name="e_0_energy">    -86.43726789 </i>
   </energy>
  </scstep>
  <scstep>
   <time name="dav">    9.77    9.78</time>
   <time name="total">   10.27   10.28</time>
   <dipole>
    <v name="dipole">      0.00000000       0.00000000       0.01325282 </v>
    <i name="Tr[quadrupol]">   -520.61099494 </i>
    <i name="Echarged">      0.00000000 </i>
    <i name="Edipol_quadrupol">      0.00000000 </i>
    <i name="Eion">      0.00000000 </i>
   </dipole>
   <energy>
    <i name="e_fr_energy">    -86.43997082 </i>
    <i name="e_wo_entrp">    -86.42783413 </i>
    <i name="e_0_energy">    -86.43693665 </i>
   </energy>
  </scstep>
  <scstep>
   <time name="dav">    9.28    9.28</time>
   <time name="total">    9.77    9.78</time>
   <dipole>
    <v name="dipole">      0.00000000       0.00000000       0.01263786 </v>
    <i name="Tr[quadrupol]">   -520.63261178 </i>
    <i name="Echarged">      0.00000000 </i>
    <i name="Edipol_quadrupol">      0.00000000 </i>
    <i name="Eion">      0.00000000 </i>
   </dipole>
   <energy>
    <i name="e_fr_energy">    -86.43995702 </i>
    <i name="e_wo_entrp">    -86.42761008 </i>
    <i name="e_0_energy">    -86.43687028 </i>
   </energy>
  </scstep>
  <scstep>
   <time name="dav">    9.21    9.21</time>
   <time name="total">    9.70    9.70</time>
   <dipole>
    <v name="dipole">      0.00000000       0.00000000       0.01220237 </v>
    <i name="Tr[quadrupol]">   -520.64354506 </i>
    <i name="Echarged">      0.00000000 </i>
    <i name="Edipol_quadrupol">      0.00000000 </i>
    <i name="Eion">      0.00000000 </i>
   </dipole>
   <energy>
    <i name="e_fr_energy">    -86.44004264 </i>
    <i name="e_wo_entrp">    -86.42788468 </i>
    <i name="e_0_energy">    -86.43700315 </i>
   </energy>
  </scstep>
  <scstep>
   <time name="dav">    9.14    9.14</time>
   <time name="total">    9.63    9.63</time>
   <dipole>
    <v name="dipole">      0.00000000       0.00000000       0.01187975 </v>
    <i name="Tr[quadrupol]">   -520.64901715 </i>
    <i name="Echarged">      0.00000000 </i>
    <i name="Edipol_quadrupol">      0.00000000 </i>
    <i name="Eion">      0.00000000 </i>
   </dipole>
   <energy>
    <i name="e_fr_energy">    -86.44010305 </i>
    <i name="e_wo_entrp">    -86.42785974 </i>
    <i name="e_0_energy">    -86.43704222 </i>
   </energy>
  </scstep>
  <scstep>
   <time name="dav">    7.83    7.84</time>
   <time name="total">    8.33    8.34</time>
   <dipole>
    <v name="dipole">      0.00000000       0.00000000       0.01152006 </v>
    <i name="Tr[quadrupol]">   -520.65192430 </i>
    <i name="Echarged">      0.00000000 </i>
    <i name="Edipol_quadrupol">      0.00000000 </i>
    <i name="Eion">      0.00000000 </i>
   </dipole>
   <energy>
    <i name="e_fr_energy">    -86.44014735 </i>
    <i name="e_wo_entrp">    -86.42788207 </i>
    <i name="e_0_energy">    -86.43708103 </i>
   </energy>
  </scstep>
  <scstep>
   <time name="dav">    7.89    7.90</time>
   <time name="total">    8.39    8.39</time>
   <dipole>
    <v name="dipole">      0.00000000       0.00000000       0.01083155 </v>
    <i name="Tr[quadrupol]">   -520.66496141 </i>
    <i name="Echarged">      0.00000000 </i>
    <i name="Edipol_quadrupol">      0.00000000 </i>
    <i name="Eion">      0.00000000 </i>
   </dipole>
   <energy>
    <i name="e_fr_energy">    -86.44025848 </i>
    <i name="e_wo_entrp">    -86.42796594 </i>
    <i name="e_0_energy">    -86.43718534 </i>
   </energy>
  </scstep>
  <scstep>
   <time name="dav">    8.23    8.23</time>
   <time name="total">    8.72    8.73</time>
   <dipole>
    <v name="dipole">      0.00000000       0.00000000       0.01055157 </v>
    <i name="Tr[quadrupol]">   -520.67766395 </i>
    <i name="Echarged">      0.00000000 </i>
    <i name="Edipol_quadrupol">      0.00000000 </i>
    <i name="Eion">      0.00000000 </i>
   </dipole>
   <energy>
    <i name="e_fr_energy">    -86.44032810 </i>
    <i name="e_wo_entrp">    -86.42805752 </i>
    <i name="e_0_energy">    -86.43726046 </i>
   </energy>
  </scstep>
  <scstep>
   <time name="dav">    7.96    7.97</time>
   <time name="total">    8.46    8.46</time>
   <dipole>
    <v name="dipole">      0.00000000       0.00000000       0.01015696 </v>
    <i name="Tr[quadrupol]">   -520.69023064 </i>
    <i name="Echarged">      0.00000000 </i>
    <i name="Edipol_quadrupol">      0.00000000 </i>
    <i name="Eion">      0.00000000 </i>
   </dipole>
   <energy>
    <i name="e_fr_energy">    -86.44037336 </i>
    <i name="e_wo_entrp">    -86.42809347 </i>
    <i name="e_0_energy">    -86.43730339 </i>
   </energy>
  </scstep>
  <scstep>
   <time name="dav">    6.56    6.57</time>
   <time name="total">    7.06    7.06</time>
   <dipole>
    <v name="dipole">      0.00000000       0.00000000       0.00997487 </v>
    <i name="Tr[quadrupol]">   -520.69878256 </i>
    <i name="Echarged">      0.00000000 </i>
    <i name="Edipol_quadrupol">      0.00000000 </i>
    <i name="Eion">      0.00000000 </i>
   </dipole>
   <energy>
    <i name="e_fr_energy">    -86.44038802 </i>
    <i name="e_wo_entrp">    -86.42811709 </i>
    <i name="e_0_energy">    -86.43732029 </i>
   </energy>
  </scstep>
  <scstep>
   <time name="dav">    6.72    6.72</time>
   <time name="total">    7.21    7.21</time>
   <dipole>
    <v name="dipole">      0.00000000       0.00000000       0.00960805 </v>
    <i name="Tr[quadrupol]">   -520.70903938 </i>
    <i name="Echarged">      0.00000000 </i>
    <i name="Edipol_quadrupol">      0.00000000 </i>
    <i name="Eion">      0.00000000 </i>
   </dipole>
   <energy>
    <i name="e_fr_energy">    -86.44039516 </i>
    <i name="e_wo_entrp">    -86.42813123 </i>
    <i name="e_0_energy">    -86.43732918 </i>
   </energy>
  </scstep>
  <scstep>
   <time name="dav">    5.46    5.47</time>
   <time name="total">    5.96    5.96</time>
   <dipole>
    <v name="dipole">      0.00000000       0.00000000       0.00914789 </v>
    <i name="Tr[quadrupol]">   -520.71483860 </i>
    <i name="Echarged">      0.00000000 </i>
    <i name="Edipol_quadrupol">      0.00000000 </i>
    <i name="Eion">      0.00000000 </i>
   </dipole>
   <energy>
    <i name="e_fr_energy">    -86.44039629 </i>
    <i name="e_wo_entrp">    -86.42812706 </i>
    <i name="e_0_energy">    -86.43732899 </i>
   </energy>
  </scstep>
  <scstep>
   <time name="dav">    5.25    5.26</time>
   <time name="total">    5.75    5.75</time>
   <dipole>
    <v name="dipole">      0.00000000       0.00000000       0.00893702 </v>
    <i name="Tr[quadrupol]">   -520.71764757 </i>
    <i name="Echarged">      0.00000000 </i>
    <i name="Edipol_quadrupol">      0.00000000 </i>
    <i name="Eion">      0.00000000 </i>
   </dipole>
   <energy>
    <i name="e_fr_energy">    -86.44039762 </i>
    <i name="e_wo_entrp">    -86.42813116 </i>
    <i name="e_0_energy">    -86.43733100 </i>
   </energy>
  </scstep>
  <scstep>
   <time name="dav">    5.29    5.29</time>
   <time name="total">    5.32    5.32</time>
   <dipole>
    <v name="dipole">      0.00000000       0.00000000       0.00882176 </v>
    <i name="Tr[quadrupol]">   -520.71900266 </i>
    <i name="Echarged">      0.00000000 </i>
    <i name="Edipol_quadrupol">      0.00000000 </i>
    <i name="Eion">      0.00000000 </i>
   </dipole>
   <energy>
    <i name="alphaZ">    472.02247645 </i>
    <i name="ewald">  34336.50975780 </i>
    <i name="hartreedc"> -44452.68274177 </i>
    <i name="XCdc">    129.47206901 </i>
    <i name="pawpsdc">   7884.54084982 </i>
    <i name="pawaedc">  -7814.59717450 </i>
    <i name="eentropy">     -0.01226295 </i>
    <i name="bandstr">   -523.60074430 </i>
    <i name="atom">   9881.90737187 </i>
    <i name="e_fr_energy">    -86.44039858 </i>
    <i name="e_wo_entrp">    -86.42813563 </i>
    <i name="e_0_energy">    -86.43733284 </i>
   </energy>
  </scstep>
  <structure>
   <crystal>
    <varray name="basis" >
     <v>       4.88428255       0.00000000       0.00000000 </v>
     <v>       2.44214127       4.22991277       0.00000000 </v>
     <v>       0.00000000       0.00000000      22.10741862 </v>
    </varray>
    <i name="volume">    456.74123834 </i>
    <varray name="rec_basis" >
     <v>       0.20473836      -0.11820575       0.00000000 </v>
     <v>      -0.00000000       0.23641149       0.00000000 </v>
     <v>       0.00000000       0.00000000       0.04523368 </v>
    </varray>
   </crystal>
   <varray name="positions" >
    <v>       0.30286415       0.49410690       0.00209390 </v>
    <v>       0.63619748       0.82744023       0.00209390 </v>
    <v>       0.96953081       0.16077357       0.00209390 </v>
    <v>       0.63619748       0.49410690       0.10624323 </v>
    <v>       0.96953081       0.82744023       0.10624323 </v>
    <v>       0.30286415       0.16077357       0.10624323 </v>
    <v>       0.30286309       0.49411671       0.28463290 </v>
    <v>       0.63620592       0.82743073       0.28463283 </v>
    <v>       0.96952233       0.16077350       0.28463350 </v>
    <v>       0.96957907       0.49405396       0.19378167 </v>
    <v>       0.30285958       0.82749301       0.19378177 </v>
    <v>       0.63615740       0.16077368       0.19378198 </v>
    <v>       0.84319831       0.03753600       0.39709390 </v>
    <v>       0.67774055       0.86366202       0.38338298 </v>
    <v>       0.05850993       0.86089080       0.40803909 </v>
   </varray>
  </structure>
  <varray name="forces" >
   <v>      -0.00513501       0.00496680      -0.23921447 </v>
   <v>      -0.01496247      -0.00057566      -0.33561970 </v>
   <v>       0.00397233      -0.00547023      -0.27304276 </v>
   <v>       0.00852008       0.00331512       0.23075881 </v>
   <v>      -0.07224800      -0.01293688       0.20294658 </v>
   <v>      -0.00419380      -0.02271883       0.20864157 </v>
   <v>      -0.00094962       0.02703692      -0.45222711 </v>
   <v>       0.32971374      -0.03560253       1.11286482 </v>
   <v>      -0.05708881      -0.01521419       0.16288071 </v>
   <v>      -0.15050482       0.03252080       0.22170030 </v>
   <v>       0.19494020       0.10479770       0.16587638 </v>
   <v>      -0.06317964      -0.04806022      -0.11555087 </v>
   <v>      -0.04507900      -0.75379430      -0.14165489 </v>
   <v>       0.25777167       0.21196662      -0.60249360 </v>
   <v>      -0.38157684       0.50976888      -0.14586576 </v>
  </varray>
  <varray name="stress" >
   <v>     -52.04165631      -1.16888445      -0.52832472 </v>
   <v>      -1.16888444     -48.95902604      -0.22552289 </v>
   <v>      -0.52832471      -0.22552287      -1.23595835 </v>
  </varray>
  <energy>
   <i name="e_fr_energy">    -86.44039858 </i>
   <i name="e_wo_entrp">    -86.43733284 </i>
   <i name="e_0_energy">     -0.01226295 </i>
  </energy>
  <time name="totalsc">  323.83  325.55</time>
 </calculation>
 <calculation>
  <scstep>
   <time name="dav">    7.08    7.08</time>
   <time name="total">    7.57    7.57</time>
   <dipole>
    <v name="dipole">      0.00000000       0.00000000       0.00868683 </v>
    <i name="Tr[quadrupol]">   -520.37653173 </i>
    <i name="Echarged">      0.00000000 </i>
    <i name="Edipol_quadrupol">      0.00000000 </i>
    <i name="Eion">      0.00000000 </i>
   </dipole>
   <energy>
    <i name="alphaZ">    471.97370587 </i>
    <i name="ewald">  34333.61441794 </i>
    <i name="hartreedc"> -44448.05824758 </i>
    <i name="XCdc">    129.55012589 </i>
    <i name="pawpsdc">   7884.54158112 </i>
    <i name="pawaedc">  -7814.59767075 </i>
    <i name="eentropy">     -0.01251623 </i>
    <i name="bandstr">   -525.39315802 </i>
    <i name="atom">   9881.90737187 </i>
    <i name="e_fr_energy">    -86.47438990 </i>
    <i name="e_wo_entrp">    -86.46187367 </i>
    <i name="e_0_energy">    -86.47126084 </i>
   </energy>
  </scstep>
  <scstep>
   <time name="dav">    9.15    9.16</time>
   <time name="total">    9.64    9.65</time>
   <dipole>
    <v name="dipole">      0.00000000       0.00000000       0.00358625 </v>
    <i name="Tr[quadrupol]">   -520.35930695 </i>
    <i name="Echarged">      0.00000000 </i>
    <i name="Edipol_quadrupol">      0.00000000 </i>
    <i name="Eion">      0.00000000 </i>
   </dipole>
   <energy>
    <i name="e_fr_energy">    -86.49028823 </i>
    <i name="e_wo_entrp">    -86.47925887 </i>
    <i name="e_0_energy">    -86.48753089 </i>
   </energy>
  </scstep>
  <scstep>
   <time name="dav">   10.13   10.14</time>
   <time name="total">   10.62   10.63</time>
   <dipole>
    <v name="dipole">      0.00000000       0.00000000       0.01834831 </v>
    <i name="Tr[quadrupol]">   -520.43108177 </i>
    <i name="Echarged">      0.00000000 </i>
    <i name="Edipol_quadrupol">      0.00000000 </i>
    <i name="Eion">      0.00000000 </i>
   </dipole>
   <energy>
    <i name="e_fr_energy">    -86.50813269 </i>
    <i name="e_wo_entrp">    -86.49373500 </i>
    <i name="e_0_energy">    -86.50453327 </i>
   </energy>
  </scstep>
  <scstep>
   <time name="dav">   10.03   10.04</time>
   <time name="total">   10.52   10.53</time>
   <dipole>
    <v name="dipole">      0.00000000       0.00000000       0.00708027 </v>
    <i name="Tr[quadrupol]">   -520.39063325 </i>
    <i name="Echarged">      0.00000000 </i>
    <i name="Edipol_quadrupol">      0.00000000 </i>
    <i name="Eion">      0.00000000 </i>
   </dipole>
   <energy>
    <i name="e_fr_energy">    -86.48739623 </i>
    <i name="e_wo_entrp">    -86.47583236 </i>
    <i name="e_0_energy">    -86.48450526 </i>
   </energy>
  </scstep>
  <scstep>
   <time name="dav">   11.16   11.16</time>
   <time name="total">   11.65   11.66</time>
   <dipole>
    <v name="dipole">      0.00000000       0.00000000      -0.00161287 </v>
    <i name="Tr[quadrupol]">   -520.39371170 </i>
    <i name="Echarged">      0.00000000 </i>
    <i name="Edipol_quadrupol">      0.00000000 </i>
    <i name="Eion">      0.00000000 </i>
   </dipole>
   <energy>
    <i name="e_fr_energy">    -86.49111576 </i>
    <i name="e_wo_entrp">    -86.47783977 </i>
    <i name="e_0_energy">    -86.48779676 </i>
   </energy>
  </scstep>
  <scstep>
   <time name="dav">    9.69    9.69</time>
   <time name="total">   10.18   10.18</time>
   <dipole>
    <v name="dipole">      0.00000000       0.00000000      -0.00008166 </v>
    <i name="Tr[quadrupol]">   -520.40933068 </i>
    <i name="Echarged">      0.00000000 </i>
    <i name="Edipol_quadrupol">      0.00000000 </i>
    <i name="Eion">      0.00000000 </i>
   </dipole>
   <energy>
    <i name="e_fr_energy">    -86.48925000 </i>
    <i name="e_wo_entrp">    -86.47613754 </i>
    <i name="e_0_energy">    -86.48597188 </i>
   </energy>
  </scstep>
  <scstep>
   <time name="dav">   10.90   10.91</time>
   <time name="total">   11.39   11.40</time>
   <dipole>
    <v name="dipole">      0.00000000       0.00000000       0.00591479 </v>
    <i name="Tr[quadrupol]">   -520.41691641 </i>
    <i name="Echarged">      0.00000000 </i>
    <i name="Edipol_quadrupol">      0.00000000 </i>
    <i name="Eion">      0.00000000 </i>
   </dipole>
   <energy>
    <i name="e_fr_energy">    -86.48659078 </i>
    <i name="e_wo_entrp">    -86.47522655 </i>
    <i name="e_0_energy">    -86.48374972 </i>
   </energy>
  </scstep>
  <scstep>
   <time name="dav">    9.67    9.67</time>
   <time name="total">   10.16   10.17</time>
   <dipole>
    <v name="dipole">      0.00000000       0.00000000       0.00331909 </v>
    <i name="Tr[quadrupol]">   -520.41002648 </i>
    <i name="Echarged">      0.00000000 </i>
    <i name="Edipol_quadrupol">      0.00000000 </i>
    <i name="Eion">      0.00000000 </i>
   </dipole>
   <energy>
    <i name="e_fr_energy">    -86.48708771 </i>
    <i name="e_wo_entrp">    -86.47476609 </i>
    <i name="e_0_energy">    -86.48400731 </i>
   </energy>
  </scstep>
  <scstep>
   <time name="dav">    9.71    9.73</time>
   <time name="total">   10.21   10.22</time>
   <dipole>
    <v name="dipole">      0.00000000       0.00000000       0.00333119 </v>
    <i name="Tr[quadrupol]">   -520.41211475 </i>
    <i name="Echarged">      0.00000000 </i>
    <i name="Edipol_quadrupol">      0.00000000 </i>
    <i name="Eion">      0.00000000 </i>
   </dipole>
   <energy>
    <i name="e_fr_energy">    -86.48601718 </i>
    <i name="e_wo_entrp">    -86.47376933 </i>
    <i name="e_0_energy">    -86.48295522 </i>
   </energy>
  </scstep>
  <scstep>
   <time name="dav">   10.59   10.60</time>
   <time name="total">   11.08   11.09</time>
   <dipole>
    <v name="dipole">      0.00000000       0.00000000       0.00333892 </v>
    <i name="Tr[quadrupol]">   -520.42171426 </i>
    <i name="Echarged">      0.00000000 </i>
    <i name="Edipol_quadrupol">      0.00000000 </i>
    <i name="Eion">      0.00000000 </i>
   </dipole>
   <energy>
    <i name="e_fr_energy">    -86.48586156 </i>
    <i name="e_wo_entrp">    -86.47372584 </i>
    <i name="e_0_energy">    -86.48282763 </i>
   </energy>
  </scstep>
  <scstep>
   <time name="dav">    9.61    9.61</time>
   <time name="total">   10.09   10.10</time>
   <dipole>
    <v name="dipole">      0.00000000       0.00000000       0.00291852 </v>
    <i name="Tr[quadrupol]">   -520.41958082 </i>
    <i name="Echarged">      0.00000000 </i>
    <i name="Edipol_quadrupol">      0.00000000 </i>
    <i name="Eion">      0.00000000 </i>
   </dipole>
   <energy>
    <i name="e_fr_energy">    -86.48584490 </i>
    <i name="e_wo_entrp">    -86.47366758 </i>
    <i name="e_0_energy">    -86.48280057 </i>
   </energy>
  </scstep>
  <scstep>
   <time name="dav">    9.54    9.54</time>
   <time name="total">   10.03   10.03</time>
   <dipole>
    <v name="dipole">      0.00000000       0.00000000       0.00295434 </v>
    <i name="Tr[quadrupol]">   -520.42049291 </i>
    <i name="Echarged">      0.00000000 </i>
    <i name="Edipol_quadrupol">      0.00000000 </i>
    <i name="Eion">      0.00000000 </i>
   </dipole>
   <energy>
    <i name="e_fr_energy">    -86.48584294 </i>
    <i name="e_wo_entrp">    -86.47361533 </i>
    <i name="e_0_energy">    -86.48278604 </i>
   </energy>
  </scstep>
  <scstep>
   <time name="dav">    8.65    8.66</time>
   <time name="total">    9.14    9.15</time>
   <dipole>
    <v name="dipole">      0.00000000       0.00000000       0.00259019 </v>
    <i name="Tr[quadrupol]">   -520.42169852 </i>
    <i name="Echarged">      0.00000000 </i>
    <i name="Edipol_quadrupol">      0.00000000 </i>
    <i name="Eion">      0.00000000 </i>
   </dipole>
   <energy>
    <i name="e_fr_energy">    -86.48584831 </i>
    <i name="e_wo_entrp">    -86.47363444 </i>
    <i name="e_0_energy">    -86.48279484 </i>
   </energy>
  </scstep>
  <scstep>
   <time name="dav">    6.99    6.99</time>
   <time name="total">    7.48    7.49</time>
   <dipole>
    <v name="dipole">      0.00000000       0.00000000       0.00244174 </v>
    <i name="Tr[quadrupol]">   -520.42267031 </i>
    <i name="Echarged">      0.00000000 </i>
    <i name="Edipol_quadrupol">      0.00000000 </i>
    <i name="Eion">      0.00000000 </i>
   </dipole>
   <energy>
    <i name="e_fr_energy">    -86.48585432 </i>
    <i name="e_wo_entrp">    -86.47363822 </i>
    <i name="e_0_energy">    -86.48280029 </i>
   </energy>
  </scstep>
  <scstep>
   <time name="dav">    5.55    5.55</time>
   <time name="total">    6.10    6.10</time>
   <dipole>
    <v name="dipole">      0.00000000       0.00000000       0.00238778 </v>
    <i name="Tr[quadrupol]">   -520.42311090 </i>
    <i name="Echarged">      0.00000000 </i>
    <i name="Edipol_quadrupol">      0.00000000 </i>
    <i name="Eion">      0.00000000 </i>
   </dipole>
   <energy>
    <i name="e_fr_energy">    -86.48585742 </i>
    <i name="e_wo_entrp">    -86.47364110 </i>
    <i name="e_0_energy">    -86.48280334 </i>
   </energy>
  </scstep>
  <scstep>
   <time name="dav">    5.84    5.85</time>
   <time name="total">    6.33    6.34</time>
   <dipole>
    <v name="dipole">      0.00000000       0.00000000       0.00221651 </v>
    <i name="Tr[quadrupol]">   -520.42409402 </i>
    <i name="Echarged">      0.00000000 </i>
    <i name="Edipol_quadrupol">      0.00000000 </i>
    <i name="Eion">      0.00000000 </i>
   </dipole>
   <energy>
    <i name="e_fr_energy">    -86.48586331 </i>
    <i name="e_wo_entrp">    -86.47365214 </i>
    <i name="e_0_energy">    -86.48281051 </i>
   </energy>
  </scstep>
  <scstep>
   <time name="dav">    5.38    5.38</time>
   <time name="total">    5.87    5.88</time>
   <dipole>
    <v name="dipole">      0.00000000       0.00000000       0.00210289 </v>
    <i name="Tr[quadrupol]">   -520.42479157 </i>
    <i name="Echarged">      0.00000000 </i>
    <i name="Edipol_quadrupol">      0.00000000 </i>
    <i name="Eion">      0.00000000 </i>
   </dipole>
   <energy>
    <i name="e_fr_energy">    -86.48586711 </i>
    <i name="e_wo_entrp">    -86.47365802 </i>
    <i name="e_0_energy">    -86.48281484 </i>
   </energy>
  </scstep>
  <scstep>
   <time name="dav">    5.46    5.47</time>
   <time name="total">    5.95    5.96</time>
   <dipole>
    <v name="dipole">      0.00000000       0.00000000       0.00194958 </v>
    <i name="Tr[quadrupol]">   -520.42560350 </i>
    <i name="Echarged">      0.00000000 </i>
    <i name="Edipol_quadrupol">      0.00000000 </i>
    <i name="Eion">      0.00000000 </i>
   </dipole>
   <energy>
    <i name="e_fr_energy">    -86.48587054 </i>
    <i name="e_wo_entrp">    -86.47366027 </i>
    <i name="e_0_energy">    -86.48281798 </i>
   </energy>
  </scstep>
  <scstep>
   <time name="dav">    5.52    5.52</time>
   <time name="total">    6.01    6.01</time>
   <dipole>
    <v name="dipole">      0.00000000       0.00000000       0.00177757 </v>
    <i name="Tr[quadrupol]">   -520.42627312 </i>
    <i name="Echarged">      0.00000000 </i>
    <i name="Edipol_quadrupol">      0.00000000 </i>
    <i name="Eion">      0.00000000 </i>
   </dipole>
   <energy>
    <i name="e_fr_energy">    -86.48587325 </i>
    <i name="e_wo_entrp">    -86.47366335 </i>
    <i name="e_0_energy">    -86.48282078 </i>
   </energy>
  </scstep>
  <scstep>
   <time name="dav">    5.47    5.47</time>
   <time name="total">    6.02    6.03</time>
   <dipole>
    <v name="dipole">      0.00000000       0.00000000       0.00158863 </v>
    <i name="Tr[quadrupol]">   -520.42696315 </i>
    <i name="Echarged">      0.00000000 </i>
    <i name="Edipol_quadrupol">      0.00000000 </i>
    <i name="Eion">      0.00000000 </i>
   </dipole>
   <energy>
    <i name="e_fr_energy">    -86.48587460 </i>
    <i name="e_wo_entrp">    -86.47366487 </i>
    <i name="e_0_energy">    -86.48282216 </i>
   </energy>
  </scstep>
  <scstep>
   <time name="dav">    5.29    5.29</time>
   <time name="total">    5.32    5.32</time>
   <dipole>
    <v name="dipole">      0.00000000       0.00000000       0.00148304 </v>
    <i name="Tr[quadrupol]">   -520.42748931 </i>
    <i name="Echarged">      0.00000000 </i>
    <i name="Edipol_quadrupol">      0.00000000 </i>
    <i name="Eion">      0.00000000 </i>
   </dipole>
   <energy>
    <i name="alphaZ">    471.62621968 </i>
    <i name="ewald">  34333.61441794 </i>
    <i name="hartreedc"> -44450.62678437 </i>
    <i name="XCdc">    129.61609635 </i>
    <i name="pawpsdc">   7888.59373371 </i>
    <i name="pawaedc">  -7818.66602852 </i>
    <i name="eentropy">     -0.01220970 </i>
    <i name="bandstr">   -522.53869182 </i>
    <i name="atom">   9881.90737187 </i>
    <i name="e_fr_energy">    -86.48587487 </i>
    <i name="e_wo_entrp">    -86.47366517 </i>
    <i name="e_0_energy">    -86.48282244 </i>
   </energy>
  </scstep>
  <structure>
   <crystal>
    <varray name="basis" >
     <v>       4.88428255       0.00000000       0.00000000 </v>
     <v>       2.44214127       4.22991277       0.00000000 </v>
     <v>       0.00000000       0.00000000      22.10741862 </v>
    </varray>
    <i name="volume">    456.74123834 </i>
    <varray name="rec_basis" >
     <v>       0.20473836      -0.11820575       0.00000000 </v>
     <v>      -0.00000000       0.23641149       0.00000000 </v>
     <v>       0.00000000       0.00000000       0.04523368 </v>
    </varray>
   </crystal>
   <varray name="positions" >
    <v>       0.30286415       0.49410690       0.00209390 </v>
    <v>       0.63619748       0.82744023       0.00209390 </v>
    <v>       0.96953081       0.16077357       0.00209390 </v>
    <v>       0.63619748       0.49410690       0.10624323 </v>
    <v>       0.96953081       0.82744023       0.10624323 </v>
    <v>       0.30286415       0.16077357       0.10624323 </v>
    <v>       0.30279767       0.49424005       0.28423816 </v>
    <v>       0.63758978       0.82726831       0.28560423 </v>
    <v>       0.96933148       0.16070410       0.28477567 </v>
    <v>       0.96891027       0.49420232       0.19397518 </v>
    <v>       0.30339071       0.82797111       0.19392656 </v>
    <v>       0.63601741       0.16055443       0.19368111 </v>
    <v>       0.84473963       0.03409715       0.39697025 </v>
    <v>       0.67827547       0.86462902       0.38285708 </v>
    <v>       0.05583958       0.86321639       0.40791177 </v>
   </varray>
  </structure>
  <varray name="forces" >
   <v>      -0.00616957       0.00559885      -0.24165366 </v>
   <v>      -0.01572729      -0.00273297      -0.33197174 </v>
   <v>       0.00661128      -0.00531384      -0.27251867 </v>
   <v>       0.00688255       0.01242128       0.23879825 </v>
   <v>      -0.06453399      -0.02867891       0.22150382 </v>
   <v>      -0.01646897      -0.01133801       0.21364973 </v>
   <v>       0.02153501       0.01944674      -0.38418847 </v>
   <v>       0.28574248      -0.02697164       0.84258765 </v>
   <v>      -0.03283105      -0.01191787       0.13565090 </v>
   <v>      -0.17385120       0.05071828       0.20298609 </v>
   <v>       0.23155619       0.11518048       0.16583909 </v>
   <v>      -0.06664601      -0.08421343      -0.05933114 </v>
   <v>      -0.39374068       0.19899677      -0.31112331 </v>
   <v>       0.06917850       0.03133152      -0.48611509 </v>
   <v>       0.14846276      -0.26252723       0.06588655 </v>
  </varray>
  <varray name="stress" >
   <v>     -50.37154224      -1.98101905       0.08024363 </v>
   <v>      -1.98101901     -46.77628944      -0.66067248 </v>
   <v>       0.08024361      -0.66067248      -0.43385235 </v>
  </varray>
  <energy>
   <i name="e_fr_energy">    -86.48587487 </i>
   <i name="e_wo_entrp">    -86.48282244 </i>
   <i name="e_0_energy">     -0.01220970 </i>
  </energy>
  <time name="totalsc">  186.11  186.26</time>
 </calculation>
 <calculation>
  <scstep>
   <time name="dav">    7.09    7.10</time>
   <time name="total">    7.58    7.59</time>
   <dipole>
    <v name="dipole">      0.00000000       0.00000000       0.00138385 </v>
    <i name="Tr[quadrupol]">   -520.18661592 </i>
    <i name="Echarged">      0.00000000 </i>
    <i name="Edipol_quadrupol">      0.00000000 </i>
    <i name="Eion">      0.00000000 </i>
   </dipole>
   <energy>
    <i name="alphaZ">    471.62138884 </i>
    <i name="ewald">  34331.59516236 </i>
    <i name="hartreedc"> -44447.28750434 </i>
    <i name="XCdc">    129.67452540 </i>
    <i name="pawpsdc">   7888.59364109 </i>
    <i name="pawaedc">  -7818.66597204 </i>
    <i name="eentropy">     -0.01241585 </i>
    <i name="bandstr">   -523.91633004 </i>
    <i name="atom">   9881.90737187 </i>
    <i name="e_fr_energy">    -86.49013272 </i>
    <i name="e_wo_entrp">    -86.47771687 </i>
    <i name="e_0_energy">    -86.48702875 </i>
   </energy>
  </scstep>
  <scstep>
   <time name="dav">   12.08   12.19</time>
   <time name="total">   12.56   12.68</time>
   <dipole>
    <v name="dipole">      0.00000000       0.00000000      -0.00259780 </v>
    <i name="Tr[quadrupol]">   -520.17713875 </i>
    <i name="Echarged">      0.00000000 </i>
    <i name="Edipol_quadrupol">      0.00000000 </i>
    <i name="Eion">      0.00000000 </i>
   </dipole>
   <energy>
    <i name="e_fr_energy">    -86.49811112 </i>
    <i name="e_wo_entrp">    -86.48665305 </i>
    <i name="e_0_energy">    -86.49524660 </i>
   </energy>
  </scstep>
  <scstep>
   <time name="dav">   10.09   10.09</time>
   <time name="total">   10.58   10.59</time>
   <dipole>
    <v name="dipole">      0.00000000       0.00000000       0.00844046 </v>
    <i name="Tr[quadrupol]">   -520.22557613 </i>
    <i name="Echarged">      0.00000000 </i>
    <i name="Edipol_quadrupol">      0.00000000 </i>
    <i name="Eion">      0.00000000 </i>
   </dipole>
   <energy>
    <i name="e_fr_energy">    -86.50781649 </i>
    <i name="e_wo_entrp">    -86.49393282 </i>
    <i name="e_0_energy">    -86.50434557 </i>
   </energy>
  </scstep>
  <scstep>
   <time name="dav">    9.92    9.93</time>
   <time name="total">   10.41   10.42</time>
   <dipole>
    <v name="dipole">      0.00000000       0.00000000       0.00092935 </v>
    <i name="Tr[quadrupol]">   -520.19739455 </i>
    <i name="Echarged">      0.00000000 </i>
    <i name="Edipol_quadrupol">      0.00000000 </i>
    <i name="Eion">      0.00000000 </i>
   </dipole>
   <energy>
    <i name="e_fr_energy">    -86.49694254 </i>
    <i name="e_wo_entrp">    -86.48538795 </i>
    <i name="e_0_energy">    -86.49405389 </i>
   </energy>
  </scstep>
  <scstep>
   <time name="dav">   11.50   11.50</time>
   <time name="total">   11.98   11.99</time>
   <dipole>
    <v name="dipole">      0.00000000       0.00000000      -0.00600924 </v>
    <i name="Tr[quadrupol]">   -520.19832172 </i>
    <i name="Echarged">      0.00000000 </i>
    <i name="Edipol_quadrupol">      0.00000000 </i>
    <i name="Eion">      0.00000000 </i>
   </dipole>
   <energy>
    <i name="e_fr_energy">    -86.49804668 </i>
    <i name="e_wo_entrp">    -86.48512252 </i>
    <i name="e_0_energy">    -86.49481564 </i>
   </energy>
  </scstep>
  <scstep>
   <time name="dav">    9.69    9.70</time>
   <time name="total">   10.18   10.19</time>
   <dipole>
    <v name="dipole">      0.00000000       0.00000000      -0.00483270 </v>
    <i name="Tr[quadrupol]">   -520.21030003 </i>
    <i name="Echarged">      0.00000000 </i>
    <i name="Edipol_quadrupol">      0.00000000 </i>
    <i name="Eion">      0.00000000 </i>
   </dipole>
   <energy>
    <i name="e_fr_energy">    -86.49813095 </i>
    <i name="e_wo_entrp">    -86.48519448 </i>
    <i name="e_0_energy">    -86.49489683 </i>
   </energy>
  </scstep>
  <scstep>
   <time name="dav">   10.28   10.28</time>
   <time name="total">   10.76   10.77</time>
   <dipole>
    <v name="dipole">      0.00000000       0.00000000      -0.00129534 </v>
    <i name="Tr[quadrupol]">   -520.21580343 </i>
    <i name="Echarged">      0.00000000 </i>
    <i name="Edipol_quadrupol">      0.00000000 </i>
    <i name="Eion">      0.00000000 </i>
   </dipole>
   <energy>
    <i name="e_fr_energy">    -86.49617350 </i>
    <i name="e_wo_entrp">    -86.48445746 </i>
    <i name="e_0_energy">    -86.49324449 </i>
   </energy>
  </scstep>
  <scstep>
   <time name="dav">    9.81    9.82</time>
   <time name="total">   10.30   10.31</time>
   <dipole>
    <v name="dipole">      0.00000000       0.00000000      -0.00271335 </v>
    <i name="Tr[quadrupol]">   -520.21093646 </i>
    <i name="Echarged">      0.00000000 </i>
    <i name="Edipol_quadrupol">      0.00000000 </i>
    <i name="Eion">      0.00000000 </i>
   </dipole>
   <energy>
    <i name="e_fr_energy">    -86.49628660 </i>
    <i name="e_wo_entrp">    -86.48400173 </i>
    <i name="e_0_energy">    -86.49321539 </i>
   </energy>
  </scstep>
  <scstep>
   <time name="dav">    9.70    9.71</time>
   <time name="total">   10.19   10.20</time>
   <dipole>
    <v name="dipole">      0.00000000       0.00000000      -0.00253325 </v>
    <i name="Tr[quadrupol]">   -520.21279752 </i>
    <i name="Echarged">      0.00000000 </i>
    <i name="Edipol_quadrupol">      0.00000000 </i>
    <i name="Eion">      0.00000000 </i>
   </dipole>
   <energy>
    <i name="e_fr_energy">    -86.49597798 </i>
    <i name="e_wo_entrp">    -86.48375028 </i>
    <i name="e_0_energy">    -86.49292105 </i>
   </energy>
  </scstep>
  <scstep>
   <time name="dav">   10.44   10.45</time>
   <time name="total">   10.94   10.94</time>
   <dipole>
    <v name="dipole">      0.00000000       0.00000000      -0.00264885 </v>
    <i name="Tr[quadrupol]">   -520.21837267 </i>
    <i name="Echarged">      0.00000000 </i>
    <i name="Edipol_quadrupol">      0.00000000 </i>
    <i name="Eion">      0.00000000 </i>
   </dipole>
   <energy>
    <i name="e_fr_energy">    -86.49587669 </i>
    <i name="e_wo_entrp">    -86.48371975 </i>
    <i name="e_0_energy">    -86.49283746 </i>
   </energy>
  </scstep>
  <scstep>
   <time name="dav">    9.53    9.54</time>
   <time name="total">   10.03   10.04</time>
   <dipole>
    <v name="dipole">      0.00000000       0.00000000      -0.00289793 </v>
    <i name="Tr[quadrupol]">   -520.21659215 </i>
    <i name="Echarged">      0.00000000 </i>
    <i name="Edipol_quadrupol">      0.00000000 </i>
    <i name="Eion">      0.00000000 </i>
   </dipole>
   <energy>
    <i name="e_fr_energy">    -86.49586999 </i>
    <i name="e_wo_entrp">    -86.48369078 </i>
    <i name="e_0_energy">    -86.49282518 </i>
   </energy>
  </scstep>
  <scstep>
   <time name="dav">    8.82    8.83</time>
   <time name="total">    9.31    9.32</time>
   <dipole>
    <v name="dipole">      0.00000000       0.00000000      -0.00288751 </v>
    <i name="Tr[quadrupol]">   -520.21719418 </i>
    <i name="Echarged">      0.00000000 </i>
    <i name="Edipol_quadrupol">      0.00000000 </i>
    <i name="Eion">      0.00000000 </i>
   </dipole>
   <energy>
    <i name="e_fr_energy">    -86.49586903 </i>
    <i name="e_wo_entrp">    -86.48365497 </i>
    <i name="e_0_energy">    -86.49281552 </i>
   </energy>
  </scstep>
  <scstep>
   <time name="dav">    7.36    7.36</time>
   <time name="total">    7.85    7.85</time>
   <dipole>
    <v name="dipole">      0.00000000       0.00000000      -0.00316243 </v>
    <i name="Tr[quadrupol]">   -520.21804018 </i>
    <i name="Echarged">      0.00000000 </i>
    <i name="Edipol_quadrupol">      0.00000000 </i>
    <i name="Eion">      0.00000000 </i>
   </dipole>
   <energy>
    <i name="e_fr_energy">    -86.49587201 </i>
    <i name="e_wo_entrp">    -86.48366484 </i>
    <i name="e_0_energy">    -86.49282022 </i>
   </energy>
  </scstep>
  <scstep>
   <time name="dav">    6.69    6.76</time>
   <time name="total">    7.18    7.25</time>
   <dipole>
    <v name="dipole">      0.00000000       0.00000000      -0.00328876 </v>
    <i name="Tr[quadrupol]">   -520.21884977 </i>
    <i name="Echarged">      0.00000000 </i>
    <i name="Edipol_quadrupol">      0.00000000 </i>
    <i name="Eion">      0.00000000 </i>
   </dipole>
   <energy>
    <i name="e_fr_energy">    -86.49587615 </i>
    <i name="e_wo_entrp">    -86.48366815 </i>
    <i name="e_0_energy">    -86.49282415 </i>
   </energy>
  </scstep>
  <scstep>
   <time name="dav">    5.29    5.30</time>
   <time name="total">    5.78    5.78</time>
   <dipole>
    <v name="dipole">      0.00000000       0.00000000      -0.00333505 </v>
    <i name="Tr[quadrupol]">   -520.21922810 </i>
    <i name="Echarged">      0.00000000 </i>
    <i name="Edipol_quadrupol">      0.00000000 </i>
    <i name="Eion">      0.00000000 </i>
   </dipole>
   <energy>
    <i name="e_fr_energy">    -86.49587786 </i>
    <i name="e_wo_entrp">    -86.48366854 </i>
    <i name="e_0_energy">    -86.49282553 </i>
   </energy>
  </scstep>
  <scstep>
   <time name="dav">    5.33    5.33</time>
   <time name="total">    5.83    5.83</time>
   <dipole>
    <v name="dipole">      0.00000000       0.00000000      -0.00344024 </v>
    <i name="Tr[quadrupol]">   -520.21987274 </i>
    <i name="Echarged">      0.00000000 </i>
    <i name="Edipol_quadrupol">      0.00000000 </i>
    <i name="Eion">      0.00000000 </i>
   </dipole>
   <energy>
    <i name="e_fr_energy">    -86.49588057 </i>
    <i name="e_wo_entrp">    -86.48367470 </i>
    <i name="e_0_energy">    -86.49282910 </i>
   </energy>
  </scstep>
  <scstep>
   <time name="dav">    5.42    5.43</time>
   <time name="total">    5.92    5.92</time>
   <dipole>
    <v name="dipole">      0.00000000       0.00000000      -0.00356223 </v>
    <i name="Tr[quadrupol]">   -520.22057202 </i>
    <i name="Echarged">      0.00000000 </i>
    <i name="Edipol_quadrupol">      0.00000000 </i>
    <i name="Eion">      0.00000000 </i>
   </dipole>
   <energy>
    <i name="e_fr_energy">    -86.49588329 </i>
    <i name="e_wo_entrp">    -86.48367907 </i>
    <i name="e_0_energy">    -86.49283224 </i>
   </energy>
  </scstep>
  <scstep>
   <time name="dav">    5.33    5.35</time>
   <time name="total">    5.82    5.85</time>
   <dipole>
    <v name="dipole">      0.00000000       0.00000000      -0.00369836 </v>
    <i name="Tr[quadrupol]">   -520.22125214 </i>
    <i name="Echarged">      0.00000000 </i>
    <i name="Edipol_quadrupol">      0.00000000 </i>
    <i name="Eion">      0.00000000 </i>
   </dipole>
   <energy>
    <i name="e_fr_energy">    -86.49588519 </i>
    <i name="e_wo_entrp">    -86.48368016 </i>
    <i name="e_0_energy">    -86.49283393 </i>
   </energy>
  </scstep>
  <scstep>
   <time name="dav">    5.28    5.29</time>
   <time name="total">    5.32    5.32</time>
   <dipole>
    <v name="dipole">      0.00000000       0.00000000      -0.00379429 </v>
    <i name="Tr[quadrupol]">   -520.22171991 </i>
    <i name="Echarged">      0.00000000 </i>
    <i name="Edipol_quadrupol">      0.00000000 </i>
    <i name="Eion">      0.00000000 </i>
   </dipole>
   <energy>
    <i name="alphaZ">    471.35377120 </i>
    <i name="ewald">  34331.59516236 </i>
    <i name="hartreedc"> -44449.17014940 </i>
    <i name="XCdc">    129.72337366 </i>
    <i name="pawpsdc">   7891.87617640 </i>
[...]
       <r>   -5.7815    1.0000 </r>
       <r>   -5.5939    1.0000 </r>
       <r>   -5.5804    1.0000 </r>
       <r>   -5.3237    1.0000 </r>
       <r>   -5.1869    1.0000 </r>
       <r>   -5.0978    1.0000 </r>
       <r>   -4.7313    1.0000 </r>
       <r>   -4.6728    1.0000 </r>
       <r>   -4.5835    1.0000 </r>
       <r>   -4.5477    1.0000 </r>
       <r>   -4.4827    1.0000 </r>
       <r>   -4.3201    1.0000 </r>
       <r>   -4.1560    1.0000 </r>
       <r>   -4.1004    1.0000 </r>
       <r>   -3.9145    1.0000 </r>
       <r>   -3.7143    1.0000 </r>
       <r>   -3.5981    1.0000 </r>
       <r>   -3.5443    1.0000 </r>
       <r>   -3.4980    1.0000 </r>
       <r>   -3.4685    1.0000 </r>
       <r>   -3.3626    1.0000 </r>
       <r>   -3.3038    1.0000 </r>
       <r>   -3.1798    1.0000 </r>
       <r>   -3.0193    1.0000 </r>
       <r>   -2.9524    1.0000 </r>
       <r>   -2.8326    1.0000 </r>
       <r>   -2.7572    1.0000 </r>
       <r>   -2.6371    1.0000 </r>
       <r>   -2.5385    1.0000 </r>
       <r>   -2.4262    1.0000 </r>
       <r>   -2.1656    1.0000 </r>
       <r>   -2.0906    1.0000 </r>
       <r>   -2.0071    1.0000 </r>
       <r>   -1.9022    1.0000 </r>
       <r>   -1.7962    1.0000 </r>
       <r>   -1.6868    1.0000 </r>
       <r>   -1.5883    1.0000 </r>
       <r>   -1.5154    1.0000 </r>
       <r>   -1.4961    1.0000 </r>
       <r>   -1.4314    1.0000 </r>
       <r>   -1.3744    1.0000 </r>
       <r>   -1.2203    1.0000 </r>
       <r>   -1.0413    0.9999 </r>
       <r>   -1.0042    0.9998 </r>
       <r>   -0.9594    0.9994 </r>
       <r>   -0.9459    0.9992 </r>
       <r>   -0.8913    0.9979 </r>
       <r>   -0.8380    0.9960 </r>
       <r>   -0.7301    1.0005 </r>
       <r>   -0.6526    1.0284 </r>
       <r>   -0.6007    1.0496 </r>
       <r>   -0.5269    1.0124 </r>
       <r>   -0.4774    0.8907 </r>
       <r>   -0.3427    0.2474 </r>
       <r>   -0.3245    0.1692 </r>
       <r>   -0.2807    0.0299 </r>
       <r>   -0.1988   -0.0516 </r>
       <r>   -0.1065   -0.0163 </r>
       <r>    0.0221    0.0049 </r>
       <r>    0.0590    0.0038 </r>
       <r>    0.6511    0.0000 </r>
       <r>    0.6963    0.0000 </r>
       <r>    0.9410    0.0000 </r>
       <r>    1.8405    0.0000 </r>
       <r>    2.6220    0.0000 </r>
       <r>    3.3603    0.0000 </r>
      </set>
     </set>
    </set>
   </array>
  </eigenvalues>
  <separator name="orbital magnetization" >
   <v name="MAGDIPOLOUT">      0.00000000      0.00000000      0.00000000</v>
  </separator>
  <dos>
   <i name="efermi">     -0.39285494 </i>
   <total>
    <array>
     <dimension dim="1">gridpoints</dimension>
     <dimension dim="2">spin</dimension>
     <field>energy</field>
     <field>total</field>
     <field>integrated</field>
     <set>
      <set comment="spin 1">
       <r>   -25.2631     0.0000     0.0000 </r>
       <r>   -25.1580     0.0000     0.0000 </r>
       <r>   -25.0529     0.0000     0.0000 </r>
       <r>   -24.9478     0.0000     0.0000 </r>
       <r>   -24.8427     0.0000     0.0000 </r>
       <r>   -24.7375     0.0000     0.0000 </r>
       <r>   -24.6324     0.0000     0.0000 </r>
       <r>   -24.5273     0.0000     0.0000 </r>
       <r>   -24.4222     0.0000     0.0000 </r>
       <r>   -24.3171     0.0000     0.0000 </r>
       <r>   -24.2120     0.0000     0.0000 </r>
       <r>   -24.1069     0.0000     0.0000 </r>
       <r>   -24.0017     0.0001     0.0000 </r>
       <r>   -23.8966     0.0019     0.0002 </r>
       <r>   -23.7915     0.0191     0.0022 </r>
       <r>   -23.6864     0.0637     0.0089 </r>
       <r>   -23.5813    -0.1385    -0.0056 </r>
       <r>   -23.4762    -0.8083    -0.0906 </r>
       <r>   -23.3711     1.2394     0.0397 </r>
       <r>   -23.2659     7.9672     0.8771 </r>
       <r>   -23.1608     9.1438     1.8383 </r>
       <r>   -23.0557     2.5107     2.1022 </r>
       <r>   -22.9506    -0.7885     2.0193 </r>
       <r>   -22.8455    -0.2772     1.9902 </r>
       <r>   -22.7404     0.0616     1.9967 </r>
       <r>   -22.6353     0.0281     1.9996 </r>
       <r>   -22.5301     0.0034     2.0000 </r>
       <r>   -22.4250     0.0002     2.0000 </r>
       <r>   -22.3199     0.0000     2.0000 </r>
       <r>   -22.2148     0.0000     2.0000 </r>
       <r>   -22.1097     0.0000     2.0000 </r>
       <r>   -22.0046     0.0000     2.0000 </r>
       <r>   -21.8995     0.0000     2.0000 </r>
       <r>   -21.7943     0.0000     2.0000 </r>
       <r>   -21.6892     0.0000     2.0000 </r>
       <r>   -21.5841     0.0000     2.0000 </r>
       <r>   -21.4790     0.0000     2.0000 </r>
       <r>   -21.3739     0.0000     2.0000 </r>
       <r>   -21.2688     0.0000     2.0000 </r>
       <r>   -21.1636     0.0000     2.0000 </r>
       <r>   -21.0585     0.0000     2.0000 </r>
       <r>   -20.9534     0.0000     2.0000 </r>
       <r>   -20.8483     0.0000     2.0000 </r>
       <r>   -20.7432     0.0000     2.0000 </r>
       <r>   -20.6381     0.0000     2.0000 </r>
       <r>   -20.5330     0.0000     2.0000 </r>
       <r>   -20.4278     0.0000     2.0000 </r>
       <r>   -20.3227     0.0000     2.0000 </r>
       <r>   -20.2176     0.0000     2.0000 </r>
       <r>   -20.1125     0.0000     2.0000 </r>
       <r>   -20.0074     0.0000     2.0000 </r>
       <r>   -19.9023     0.0000     2.0000 </r>
       <r>   -19.7972     0.0000     2.0000 </r>
       <r>   -19.6920     0.0000     2.0000 </r>
       <r>   -19.5869     0.0000     2.0000 </r>
       <r>   -19.4818     0.0000     2.0000 </r>
       <r>   -19.3767     0.0000     2.0000 </r>
       <r>   -19.2716     0.0000     2.0000 </r>
       <r>   -19.1665     0.0000     2.0000 </r>
       <r>   -19.0614     0.0000     2.0000 </r>
       <r>   -18.9562     0.0000     2.0000 </r>
       <r>   -18.8511     0.0000     2.0000 </r>
       <r>   -18.7460     0.0000     2.0000 </r>
       <r>   -18.6409     0.0000     2.0000 </r>
       <r>   -18.5358     0.0000     2.0000 </r>
       <r>   -18.4307     0.0000     2.0000 </r>
       <r>   -18.3256     0.0000     2.0000 </r>
       <r>   -18.2204     0.0000     2.0000 </r>
       <r>   -18.1153     0.0000     2.0000 </r>
       <r>   -18.0102     0.0000     2.0000 </r>
       <r>   -17.9051     0.0006     2.0001 </r>
       <r>   -17.8000     0.0080     2.0009 </r>
       <r>   -17.6949     0.0443     2.0056 </r>
       <r>   -17.5898     0.0153     2.0072 </r>
       <r>   -17.4846    -0.5230     1.9522 </r>
       <r>   -17.3795    -0.2895     1.9218 </r>
       <r>   -17.2744     4.7623     2.4223 </r>
       <r>   -17.1693     9.7913     3.4515 </r>
       <r>   -17.0642     5.7332     4.0542 </r>
       <r>   -16.9591     0.0615     4.0606 </r>
       <r>   -16.8540    -0.6204     3.9954 </r>
       <r>   -16.7488    -0.0190     3.9934 </r>
       <r>   -16.6437     0.0508     3.9988 </r>
       <r>   -16.5386     0.0107     3.9999 </r>
       <r>   -16.4335     0.0009     4.0000 </r>
       <r>   -16.3284     0.0000     4.0000 </r>
       <r>   -16.2233     0.0000     4.0000 </r>
       <r>   -16.1182     0.0000     4.0000 </r>
       <r>   -16.0130     0.0000     4.0000 </r>
       <r>   -15.9079     0.0000     4.0000 </r>
       <r>   -15.8028     0.0000     4.0000 </r>
       <r>   -15.6977     0.0000     4.0000 </r>
       <r>   -15.5926     0.0000     4.0000 </r>
       <r>   -15.4875     0.0000     4.0000 </r>
       <r>   -15.3824     0.0000     4.0000 </r>
       <r>   -15.2772     0.0000     4.0000 </r>
       <r>   -15.1721     0.0000     4.0000 </r>
       <r>   -15.0670     0.0000     4.0000 </r>
       <r>   -14.9619     0.0000     4.0000 </r>
       <r>   -14.8568     0.0000     4.0000 </r>
       <r>   -14.7517     0.0000     4.0000 </r>
       <r>   -14.6465     0.0000     4.0000 </r>
       <r>   -14.5414     0.0000     4.0000 </r>
       <r>   -14.4363     0.0000     4.0000 </r>
       <r>   -14.3312     0.0000     4.0000 </r>
       <r>   -14.2261     0.0000     4.0000 </r>
       <r>   -14.1210     0.0000     4.0000 </r>
       <r>   -14.0159     0.0000     4.0000 </r>
       <r>   -13.9107     0.0000     4.0000 </r>
       <r>   -13.8056     0.0000     4.0000 </r>
       <r>   -13.7005     0.0000     4.0000 </r>
       <r>   -13.5954     0.0000     4.0000 </r>
       <r>   -13.4903     0.0000     4.0000 </r>
       <r>   -13.3852     0.0000     4.0000 </r>
       <r>   -13.2801     0.0000     4.0000 </r>
       <r>   -13.1749     0.0000     4.0000 </r>
       <r>   -13.0698     0.0000     4.0000 </r>
       <r>   -12.9647     0.0000     4.0000 </r>
       <r>   -12.8596     0.0000     4.0000 </r>
       <r>   -12.7545     0.0000     4.0000 </r>
       <r>   -12.6494     0.0000     4.0000 </r>
       <r>   -12.5443     0.0000     4.0000 </r>
       <r>   -12.4391     0.0000     4.0000 </r>
       <r>   -12.3340     0.0000     4.0000 </r>
       <r>   -12.2289     0.0000     4.0000 </r>
       <r>   -12.1238     0.0000     4.0000 </r>
       <r>   -12.0187     0.0000     4.0000 </r>
       <r>   -11.9136     0.0000     4.0000 </r>
       <r>   -11.8085     0.0000     4.0000 </r>
       <r>   -11.7033     0.0000     4.0000 </r>
       <r>   -11.5982     0.0000     4.0000 </r>
       <r>   -11.4931     0.0000     4.0000 </r>
       <r>   -11.3880     0.0000     4.0000 </r>
       <r>   -11.2829     0.0000     4.0000 </r>
       <r>   -11.1778     0.0000     4.0000 </r>
       <r>   -11.0727     0.0000     4.0000 </r>
       <r>   -10.9675     0.0000     4.0000 </r>
       <r>   -10.8624     0.0000     4.0000 </r>
       <r>   -10.7573     0.0000     4.0000 </r>
       <r>   -10.6522     0.0000     4.0000 </r>
       <r>   -10.5471     0.0000     4.0000 </r>
       <r>   -10.4420     0.0000     4.0000 </r>
       <r>   -10.3369     0.0000     4.0000 </r>
       <r>   -10.2317     0.0000     4.0000 </r>
       <r>   -10.1266     0.0000     4.0000 </r>
       <r>   -10.0215     0.0000     4.0000 </r>
       <r>    -9.9164     0.0000     4.0000 </r>
       <r>    -9.8113     0.0005     4.0001 </r>
       <r>    -9.7062     0.0026     4.0003 </r>
       <r>    -9.6011     0.0001     4.0003 </r>
       <r>    -9.4959    -0.0262     3.9976 </r>
       <r>    -9.3908     0.0003     3.9976 </r>
       <r>    -9.2857     0.2579     4.0247 </r>
       <r>    -9.1806     0.5570     4.0833 </r>
       <r>    -9.0755     0.5569     4.1418 </r>
       <r>    -8.9704     0.3156     4.1750 </r>
       <r>    -8.8653     1.5141     4.3342 </r>
       <r>    -8.7601     6.3326     4.9998 </r>
       <r>    -8.6550     9.2384     5.9709 </r>
       <r>    -8.5499     5.2659     6.5244 </r>
       <r>    -8.4448     1.1358     6.6438 </r>
       <r>    -8.3397     0.5569     6.7023 </r>
       <r>    -8.2346     1.0302     6.8106 </r>
       <r>    -8.1294     1.3729     6.9549 </r>
       <r>    -8.0243     1.6199     7.1252 </r>
       <r>    -7.9192     1.8949     7.3244 </r>
       <r>    -7.8141     2.0621     7.5411 </r>
       <r>    -7.7090     2.2446     7.7771 </r>
       <r>    -7.6039     3.2278     8.1164 </r>
       <r>    -7.4988     4.9072     8.6322 </r>
       <r>    -7.3936     5.0309     9.1610 </r>
       <r>    -7.2885     2.9934     9.4757 </r>
       <r>    -7.1834     2.5747     9.7463 </r>
       <r>    -7.0783     4.0723    10.1744 </r>
       <r>    -6.9732     4.2129    10.6172 </r>
       <r>    -6.8681     4.0356    11.0414 </r>
       <r>    -6.7630     5.7971    11.6507 </r>
       <r>    -6.6578     7.3752    12.4260 </r>
       <r>    -6.5527     6.8838    13.1496 </r>
       <r>    -6.4476     7.2461    13.9112 </r>
       <r>    -6.3425     8.9127    14.8481 </r>
       <r>    -6.2374    11.5481    16.0620 </r>
       <r>    -6.1323    14.5757    17.5941 </r>
       <r>    -6.0272    14.7786    19.1475 </r>
       <r>    -5.9220    15.0761    20.7322 </r>
       <r>    -5.8169    17.7892    22.6021 </r>
       <r>    -5.7118    18.3251    24.5284 </r>
       <r>    -5.6067    15.4978    26.1574 </r>
       <r>    -5.5016    13.5793    27.5848 </r>
       <r>    -5.3965    13.7688    29.0321 </r>
       <r>    -5.2914    13.4816    30.4492 </r>
       <r>    -5.1862    12.5552    31.7689 </r>
       <r>    -5.0811    13.4244    33.1800 </r>
       <r>    -4.9760    14.3554    34.6890 </r>
       <r>    -4.8709    13.3933    36.0968 </r>
       <r>    -4.7658    12.0825    37.3669 </r>
       <r>    -4.6607    11.8396    38.6114 </r>
       <r>    -4.5556    15.3882    40.2289 </r>
       <r>    -4.4504    20.7887    42.4141 </r>
       <r>    -4.3453    20.5262    44.5717 </r>
       <r>    -4.2402    16.4842    46.3044 </r>
       <r>    -4.1351    16.5392    48.0429 </r>
       <r>    -4.0300    18.2606    49.9624 </r>
       <r>    -3.9249    17.5377    51.8059 </r>
       <r>    -3.8198    18.0550    53.7037 </r>
       <r>    -3.7146    21.4428    55.9576 </r>
       <r>    -3.6095    24.5235    58.5354 </r>
       <r>    -3.5044    26.3732    61.3076 </r>
       <r>    -3.3993    27.1127    64.1576 </r>
       <r>    -3.2942    25.5557    66.8438 </r>
       <r>    -3.1891    21.5223    69.1061 </r>
       <r>    -3.0840    19.2673    71.1314 </r>
       <r>    -2.9788    20.8020    73.3180 </r>
       <r>    -2.8737    22.6545    75.6993 </r>
       <r>    -2.7686    22.9222    78.1088 </r>
       <r>    -2.6635    21.8971    80.4105 </r>
       <r>    -2.5584    20.0151    82.5144 </r>
       <r>    -2.4533    17.6784    84.3726 </r>
       <r>    -2.3482    15.5963    86.0120 </r>
       <r>    -2.2430    14.2403    87.5089 </r>
       <r>    -2.1379    13.8708    88.9669 </r>
       <r>    -2.0328    15.7684    90.6244 </r>
       <r>    -1.9277    20.1949    92.7472 </r>
       <r>    -1.8226    25.1924    95.3953 </r>
       <r>    -1.7175    27.0820    98.2420 </r>
       <r>    -1.6124    24.2743   100.7935 </r>
       <r>    -1.5072    22.6689   103.1764 </r>
       <r>    -1.4021    24.5665   105.7587 </r>
       <r>    -1.2970    23.1042   108.1873 </r>
       <r>    -1.1919    18.8533   110.1690 </r>
       <r>    -1.0868    20.8820   112.3640 </r>
       <r>    -0.9817    26.1645   115.1143 </r>
       <r>    -0.8765    25.6200   117.8073 </r>
       <r>    -0.7714    22.7153   120.1950 </r>
       <r>    -0.6663    21.9524   122.5025 </r>
       <r>    -0.5612    23.8660   125.0112 </r>
       <r>    -0.4561    28.7032   128.0283 </r>
       <r>    -0.3510    30.9567   131.2823 </r>
       <r>    -0.2459    28.0616   134.2320 </r>
       <r>    -0.1407    24.3126   136.7876 </r>
       <r>    -0.0356    19.5394   138.8415 </r>
       <r>     0.0695    12.9051   140.1980 </r>
       <r>     0.1746     7.7566   141.0133 </r>
       <r>     0.2797     5.5245   141.5940 </r>
       <r>     0.3848     4.4542   142.0622 </r>
       <r>     0.4899     4.3954   142.5243 </r>
       <r>     0.5951     5.0937   143.0597 </r>
       <r>     0.7002     4.8710   143.5717 </r>
       <r>     0.8053     3.7589   143.9668 </r>
       <r>     0.9104     4.0440   144.3919 </r>
       <r>     1.0155     4.5542   144.8706 </r>
       <r>     1.1206     3.2828   145.2157 </r>
       <r>     1.2257     2.5497   145.4837 </r>
       <r>     1.3309     3.8393   145.8872 </r>
       <r>     1.4360     5.1002   146.4234 </r>
       <r>     1.5411     4.3610   146.8818 </r>
       <r>     1.6462     3.2938   147.2280 </r>
       <r>     1.7513     3.4554   147.5912 </r>
       <r>     1.8564     4.1700   148.0295 </r>
       <r>     1.9615     3.9302   148.4426 </r>
       <r>     2.0667     3.6509   148.8264 </r>
       <r>     2.1718     3.6505   149.2101 </r>
       <r>     2.2769     3.5954   149.5881 </r>
       <r>     2.3820     4.5957   150.0711 </r>
       <r>     2.4871     5.5556   150.6551 </r>
       <r>     2.5922     5.7930   151.2640 </r>
       <r>     2.6973     5.4096   151.8327 </r>
       <r>     2.8025     3.9917   152.2523 </r>
       <r>     2.9076     3.2149   152.5902 </r>
       <r>     3.0127     4.8009   153.0948 </r>
       <r>     3.1178     6.0857   153.7345 </r>
       <r>     3.2229     5.1059   154.2712 </r>
       <r>     3.3280     4.1999   154.7127 </r>
       <r>     3.4331     3.2020   155.0493 </r>
       <r>     3.5383     1.4496   155.2016 </r>
       <r>     3.6434     0.7454   155.2800 </r>
       <r>     3.7485     0.9762   155.3826 </r>
       <r>     3.8536     0.8534   155.4723 </r>
       <r>     3.9587     0.7609   155.5523 </r>
       <r>     4.0638     1.4054   155.7000 </r>
       <r>     4.1689     1.6181   155.8701 </r>
       <r>     4.2741     0.9536   155.9703 </r>
       <r>     4.3792     0.3099   156.0029 </r>
       <r>     4.4843     0.0020   156.0031 </r>
       <r>     4.5894    -0.0340   155.9995 </r>
       <r>     4.6945    -0.0008   155.9995 </r>
       <r>     4.7996     0.0041   155.9999 </r>
       <r>     4.9047     0.0010   156.0000 </r>
       <r>     5.0099     0.0001   156.0000 </r>
       <r>     5.1150     0.0000   156.0000 </r>
       <r>     5.2201     0.0000   156.0000 </r>
       <r>     5.3252     0.0000   156.0000 </r>
       <r>     5.4303     0.0000   156.0000 </r>
       <r>     5.5354     0.0000   156.0000 </r>
       <r>     5.6406     0.0000   156.0000 </r>
       <r>     5.7457     0.0000   156.0000 </r>
       <r>     5.8508     0.0000   156.0000 </r>
       <r>     5.9559     0.0000   156.0000 </r>
       <r>     6.0610     0.0000   156.0000 </r>
       <r>     6.1661     0.0000   156.0000 </r>
       <r>     6.2712     0.0000   156.0000 </r>
      </set>
     </set>
    </array>
   </total>
  </dos>
 </calculation>
 <structure name="finalpos" >
  <crystal>
   <varray name="basis" >
    <v>       4.88428255       0.00000000       0.00000000 </v>
    <v>       2.44214127       4.22991277       0.00000000 </v>
    <v>       0.00000000       0.00000000      22.10741862 </v>
   </varray>
   <i name="volume">    456.74123834 </i>
   <varray name="rec_basis" >
    <v>       0.20473836      -0.11820575       0.00000000 </v>
    <v>      -0.00000000       0.23641149       0.00000000 </v>
    <v>       0.00000000       0.00000000       0.04523368 </v>
   </varray>
  </crystal>
  <varray name="positions" >
   <v>       0.30286415       0.49410690       0.00209390 </v>
   <v>       0.63619748       0.82744023       0.00209390 </v>
   <v>       0.96953081       0.16077357       0.00209390 </v>
   <v>       0.63619748       0.49410690       0.10624323 </v>
   <v>       0.96953081       0.82744023       0.10624323 </v>
   <v>       0.30286415       0.16077357       0.10624323 </v>
   <v>       0.30651072       0.49603828       0.27819598 </v>
   <v>       0.64738929       0.82349629       0.28942356 </v>
   <v>       0.97265392       0.15827261       0.28712323 </v>
   <v>       0.94710629       0.49238647       0.19592636 </v>
   <v>       0.31778793       0.84932971       0.19565067 </v>
   <v>       0.64763946       0.14476947       0.19377582 </v>
   <v>       0.86310935       0.05617207       0.38908340 </v>
   <v>       0.69256674       0.87964618       0.38061127 </v>
   <v>       0.07102940       0.88655634       0.40298563 </v>
  </varray>
  <varray name="selective"  type="logical" >
   <v type="logical" >  F  F  F </v>
   <v type="logical" >  F  F  F </v>
   <v type="logical" >  F  F  F </v>
   <v type="logical" >  F  F  F </v>
   <v type="logical" >  F  F  F </v>
   <v type="logical" >  F  F  F </v>
   <v type="logical" >  T  T  T </v>
   <v type="logical" >  T  T  T </v>
   <v type="logical" >  T  T  T </v>
   <v type="logical" >  T  T  T </v>
   <v type="logical" >  T  T  T </v>
   <v type="logical" >  T  T  T </v>
   <v type="logical" >  T  T  T </v>
   <v type="logical" >  T  T  T </v>
   <v type="logical" >  T  T  T </v>
  </varray>
  <nose>
   <v>      -3.00000000       0.00000000       0.00010000       0.00010000 </v>
  </nose>
 </structure>
</modeling>
