<?xml version="1.0" encoding="ISO-8859-1"?>
<modeling>
 <generator>
  <i name="program" type="string">vasp </i>
  <i name="version" type="string">5.4.4.18Apr17-6-g9f103f2a35  </i>
  <i name="subversion" type="string">(build Apr 23 2019 15:17:44) complex            parallel </i>
  <i name="platform" type="string">MareNostrum4 </i>
  <i name="date" type="string">2019 05 10 </i>
  <i name="time" type="string">09:25:52 </i>
 </generator>
 <incar>
  <i type="int" name="ISTART">     0</i>
  <i type="string" name="PREC">normal</i>
  <i type="string" name="ALGO"> NORMAL</i>
  <i type="int" name="ICHARG">     2</i>
  <i type="int" name="INIWAV">     1</i>
  <i type="int" name="NELMIN">     8</i>
  <i type="int" name="IBRION">     2</i>
  <i name="EDIFF">      0.00000100</i>
  <i name="EDIFFG">     -0.01000000</i>
  <i type="int" name="NSW">  1500</i>
  <i name="ENCUT">    450.00000000</i>
  <i name="POTIM">      0.23000000</i>
  <i type="int" name="ISMEAR">     2</i>
  <i name="SIGMA">      0.20000000</i>
  <i type="logical" name="LWAVE"> F  </i>
  <i type="logical" name="LCHARG"> T  </i>
  <v type="int" name="KPOINT_BSE">    -1     0     0     0</v>
  <i type="string" name="GGA"> 91</i>
  <i type="logical" name="LDIPOL"> T  </i>
  <i type="int" name="IDIPOL">     3</i>
 </incar>
 <structure name="primitive_cell" >
  <crystal>
   <varray name="basis" >
    <v>       4.88428255       0.00000000       0.00000000 </v>
    <v>       2.44214127       4.22991277       0.00000000 </v>
    <v>       0.00000000       0.00000000      22.10741862 </v>
   </varray>
   <i name="volume">    456.74123834 </i>
   <varray name="rec_basis" >
    <v>       0.20473836      -0.11820575       0.00000000 </v>
    <v>      -0.00000000       0.23641149       0.00000000 </v>
    <v>       0.00000000       0.00000000       0.04523368 </v>
   </varray>
  </crystal>
  <varray name="positions" >
   <v>       0.30286415       0.49410690       0.00209390 </v>
   <v>      -0.36380252       0.49410690       0.10624323 </v>
   <v>      -0.03046919      -0.17255977       0.10624323 </v>
   <v>      -0.36380252      -0.17255977       0.00209390 </v>
   <v>      -0.03046919       0.16077357       0.00209390 </v>
   <v>       0.30286415       0.16077357       0.10624323 </v>
   <v>      -0.35670363       0.15807224       0.20780490 </v>
   <v>      -0.03068849       0.49371898       0.21060178 </v>
   <v>       0.31095449      -0.16733511       0.21084926 </v>
   <v>       0.30436784      -0.49759018       0.30998083 </v>
   <v>      -0.03523669       0.17344487       0.31548253 </v>
   <v>      -0.36320804      -0.15998095       0.31745292 </v>
   <v>      -0.30496959      -0.11117503       0.40693475 </v>
   <v>      -0.12958893       0.06395658       0.41438388 </v>
   <v>       0.08154838      -0.11035942       0.42569108 </v>
  </varray>
 </structure>
 <varray name="primitive_index" >
  <v type="int" >        1 </v>
  <v type="int" >        4 </v>
  <v type="int" >        5 </v>
  <v type="int" >        2 </v>
  <v type="int" >        3 </v>
  <v type="int" >        6 </v>
  <v type="int" >       12 </v>
  <v type="int" >       10 </v>
  <v type="int" >       11 </v>
  <v type="int" >        7 </v>
  <v type="int" >        9 </v>
  <v type="int" >        8 </v>
  <v type="int" >       14 </v>
  <v type="int" >       13 </v>
  <v type="int" >       15 </v>
 </varray>
 <kpoints>
  <generation param="Monkhorst-Pack">
   <v type="int" name="divisions">       8        8        1 </v>
   <v name="usershift">      0.00000000       0.00000000       0.00000000 </v>
   <v name="genvec1">      0.12500000      -0.00000000       0.00000000 </v>
   <v name="genvec2">      0.00000000       0.12500000       0.00000000 </v>
   <v name="genvec3">      0.00000000       0.00000000       1.00000000 </v>
   <v name="shift">      0.50000000       0.50000000       0.00000000 </v>
  </generation>
  <varray name="kpointlist" >
   <v>       0.06250000       0.06250000       0.00000000 </v>
   <v>       0.00000000       0.06250000       0.00000000 </v>
   <v>      -0.06250000       0.00000000       0.00000000 </v>
   <v>       0.18750000       0.06250000       0.00000000 </v>
   <v>       0.12500000       0.18750000       0.00000000 </v>
   <v>      -0.06250000       0.12500000       0.00000000 </v>
   <v>       0.12500000      -0.06250000       0.00000000 </v>
   <v>      -0.06250000      -0.18750000       0.00000000 </v>
   <v>      -0.18750000      -0.12500000       0.00000000 </v>
   <v>       0.31250000       0.06250000       0.00000000 </v>
   <v>       0.25000000       0.31250000       0.00000000 </v>
   <v>      -0.06250000       0.25000000       0.00000000 </v>
   <v>       0.25000000      -0.06250000       0.00000000 </v>
   <v>      -0.06250000      -0.31250000       0.00000000 </v>
   <v>      -0.31250000      -0.25000000       0.00000000 </v>
   <v>       0.43750000       0.06250000       0.00000000 </v>
   <v>       0.37500000       0.43750000       0.00000000 </v>
   <v>      -0.06250000       0.37500000       0.00000000 </v>
   <v>       0.37500000      -0.06250000       0.00000000 </v>
   <v>      -0.06250000      -0.43750000       0.00000000 </v>
   <v>      -0.43750000      -0.37500000       0.00000000 </v>
   <v>      -0.43750000       0.06250000       0.00000000 </v>
   <v>       0.50000000      -0.43750000       0.00000000 </v>
   <v>      -0.06250000       0.50000000       0.00000000 </v>
   <v>       0.50000000      -0.06250000       0.00000000 </v>
   <v>      -0.06250000       0.43750000       0.00000000 </v>
   <v>       0.43750000       0.50000000       0.00000000 </v>
   <v>      -0.31250000       0.06250000       0.00000000 </v>
   <v>      -0.37500000      -0.31250000       0.00000000 </v>
   <v>      -0.06250000      -0.37500000       0.00000000 </v>
   <v>      -0.37500000      -0.06250000       0.00000000 </v>
   <v>      -0.06250000       0.31250000       0.00000000 </v>
   <v>       0.31250000       0.37500000       0.00000000 </v>
   <v>      -0.18750000       0.06250000       0.00000000 </v>
   <v>      -0.25000000      -0.18750000       0.00000000 </v>
   <v>      -0.06250000      -0.25000000       0.00000000 </v>
   <v>      -0.25000000      -0.06250000       0.00000000 </v>
   <v>      -0.06250000       0.18750000       0.00000000 </v>
   <v>       0.18750000       0.25000000       0.00000000 </v>
   <v>      -0.06250000       0.06250000       0.00000000 </v>
   <v>      -0.12500000      -0.06250000       0.00000000 </v>
   <v>      -0.06250000      -0.12500000       0.00000000 </v>
   <v>       0.18750000       0.18750000       0.00000000 </v>
   <v>      -0.00000000       0.18750000       0.00000000 </v>
   <v>      -0.18750000       0.00000000       0.00000000 </v>
   <v>       0.31250000       0.18750000       0.00000000 </v>
   <v>       0.12500000       0.31250000       0.00000000 </v>
   <v>      -0.18750000       0.12500000       0.00000000 </v>
   <v>       0.12500000      -0.18750000       0.00000000 </v>
   <v>      -0.18750000      -0.31250000       0.00000000 </v>
   <v>      -0.31250000      -0.12500000       0.00000000 </v>
   <v>       0.43750000       0.18750000       0.00000000 </v>
   <v>       0.25000000       0.43750000       0.00000000 </v>
   <v>      -0.18750000       0.25000000       0.00000000 </v>
   <v>       0.25000000      -0.18750000       0.00000000 </v>
   <v>      -0.18750000      -0.43750000       0.00000000 </v>
   <v>      -0.43750000      -0.25000000       0.00000000 </v>
   <v>      -0.43750000       0.18750000       0.00000000 </v>
   <v>       0.37500000      -0.43750000       0.00000000 </v>
   <v>      -0.18750000       0.37500000       0.00000000 </v>
   <v>       0.37500000      -0.18750000       0.00000000 </v>
   <v>      -0.18750000       0.43750000       0.00000000 </v>
   <v>       0.43750000      -0.37500000       0.00000000 </v>
   <v>      -0.31250000       0.18750000       0.00000000 </v>
   <v>       0.50000000      -0.31250000       0.00000000 </v>
   <v>      -0.18750000       0.50000000       0.00000000 </v>
   <v>       0.50000000      -0.18750000       0.00000000 </v>
   <v>      -0.18750000       0.31250000       0.00000000 </v>
   <v>       0.31250000       0.50000000       0.00000000 </v>
   <v>      -0.18750000       0.18750000       0.00000000 </v>
   <v>      -0.37500000      -0.18750000       0.00000000 </v>
   <v>      -0.18750000      -0.37500000       0.00000000 </v>
   <v>       0.31250000       0.31250000       0.00000000 </v>
   <v>      -0.00000000       0.31250000       0.00000000 </v>
   <v>      -0.31250000       0.00000000       0.00000000 </v>
   <v>       0.43750000       0.31250000       0.00000000 </v>
   <v>       0.12500000       0.43750000       0.00000000 </v>
   <v>      -0.31250000       0.12500000       0.00000000 </v>
   <v>       0.12500000      -0.31250000       0.00000000 </v>
   <v>      -0.31250000      -0.43750000       0.00000000 </v>
   <v>      -0.43750000      -0.12500000       0.00000000 </v>
   <v>      -0.43750000       0.31250000       0.00000000 </v>
   <v>       0.25000000      -0.43750000       0.00000000 </v>
   <v>      -0.31250000       0.25000000       0.00000000 </v>
   <v>       0.25000000      -0.31250000       0.00000000 </v>
   <v>      -0.31250000       0.43750000       0.00000000 </v>
   <v>       0.43750000      -0.25000000       0.00000000 </v>
   <v>      -0.31250000       0.31250000       0.00000000 </v>
   <v>       0.37500000      -0.31250000       0.00000000 </v>
   <v>      -0.31250000       0.37500000       0.00000000 </v>
   <v>       0.43750000       0.43750000       0.00000000 </v>
   <v>       0.00000000       0.43750000       0.00000000 </v>
   <v>      -0.43750000       0.00000000       0.00000000 </v>
   <v>      -0.43750000       0.43750000       0.00000000 </v>
   <v>       0.12500000      -0.43750000       0.00000000 </v>
   <v>      -0.43750000       0.12500000       0.00000000 </v>
  </varray>
  <varray name="weights" >
   <v>       0.01041667 </v>
   <v>       0.01041667 </v>
   <v>       0.01041667 </v>
   <v>       0.01041667 </v>
   <v>       0.01041667 </v>
   <v>       0.01041667 </v>
   <v>       0.01041667 </v>
   <v>       0.01041667 </v>
   <v>       0.01041667 </v>
   <v>       0.01041667 </v>
   <v>       0.01041667 </v>
   <v>       0.01041667 </v>
   <v>       0.01041667 </v>
   <v>       0.01041667 </v>
   <v>       0.01041667 </v>
   <v>       0.01041667 </v>
   <v>       0.01041667 </v>
   <v>       0.01041667 </v>
   <v>       0.01041667 </v>
   <v>       0.01041667 </v>
   <v>       0.01041667 </v>
   <v>       0.01041667 </v>
   <v>       0.01041667 </v>
   <v>       0.01041667 </v>
   <v>       0.01041667 </v>
   <v>       0.01041667 </v>
   <v>       0.01041667 </v>
   <v>       0.01041667 </v>
   <v>       0.01041667 </v>
   <v>       0.01041667 </v>
   <v>       0.01041667 </v>
   <v>       0.01041667 </v>
   <v>       0.01041667 </v>
   <v>       0.01041667 </v>
   <v>       0.01041667 </v>
   <v>       0.01041667 </v>
   <v>       0.01041667 </v>
   <v>       0.01041667 </v>
   <v>       0.01041667 </v>
   <v>       0.01041667 </v>
   <v>       0.01041667 </v>
   <v>       0.01041667 </v>
   <v>       0.01041667 </v>
   <v>       0.01041667 </v>
   <v>       0.01041667 </v>
   <v>       0.01041667 </v>
   <v>       0.01041667 </v>
   <v>       0.01041667 </v>
   <v>       0.01041667 </v>
   <v>       0.01041667 </v>
   <v>       0.01041667 </v>
   <v>       0.01041667 </v>
   <v>       0.01041667 </v>
   <v>       0.01041667 </v>
   <v>       0.01041667 </v>
   <v>       0.01041667 </v>
   <v>       0.01041667 </v>
   <v>       0.01041667 </v>
   <v>       0.01041667 </v>
   <v>       0.01041667 </v>
   <v>       0.01041667 </v>
   <v>       0.01041667 </v>
   <v>       0.01041667 </v>
   <v>       0.01041667 </v>
   <v>       0.01041667 </v>
   <v>       0.01041667 </v>
   <v>       0.01041667 </v>
   <v>       0.01041667 </v>
   <v>       0.01041667 </v>
   <v>       0.01041667 </v>
   <v>       0.01041667 </v>
   <v>       0.01041667 </v>
   <v>       0.01041667 </v>
   <v>       0.01041667 </v>
   <v>       0.01041667 </v>
   <v>       0.01041667 </v>
   <v>       0.01041667 </v>
   <v>       0.01041667 </v>
   <v>       0.01041667 </v>
   <v>       0.01041667 </v>
   <v>       0.01041667 </v>
   <v>       0.01041667 </v>
   <v>       0.01041667 </v>
   <v>       0.01041667 </v>
   <v>       0.01041667 </v>
   <v>       0.01041667 </v>
   <v>       0.01041667 </v>
   <v>       0.01041667 </v>
   <v>       0.01041667 </v>
   <v>       0.01041667 </v>
   <v>       0.01041667 </v>
   <v>       0.01041667 </v>
   <v>       0.01041667 </v>
   <v>       0.01041667 </v>
   <v>       0.01041667 </v>
   <v>       0.01041667 </v>
  </varray>
 </kpoints>
 <parameters>
  <separator name="general" >
   <i type="string" name="SYSTEM">unknown system</i>
   <i type="logical" name="LCOMPAT"> F  </i>
  </separator>
  <separator name="electronic" >
   <i type="string" name="PREC">normal</i>
   <i name="ENMAX">    450.00000000</i>
   <i name="ENAUG">    605.39200000</i>
   <i name="EDIFF">      0.00000100</i>
   <i type="int" name="IALGO">    38</i>
   <i type="int" name="IWAVPR">    11</i>
   <i type="int" name="NBANDS">    80</i>
   <i name="NELECT">    133.00000000</i>
   <i type="int" name="TURBO">     0</i>
   <i type="int" name="IRESTART">     0</i>
   <i type="int" name="NREBOOT">     0</i>
   <i type="int" name="NMIN">     0</i>
   <i name="EREF">      0.00000000</i>
   <separator name="electronic smearing" >
    <i type="int" name="ISMEAR">     2</i>
    <i name="SIGMA">      0.20000000</i>
    <i name="KSPACING">      0.50000000</i>
    <i type="logical" name="KGAMMA"> T  </i>
   </separator>
   <separator name="electronic projectors" >
    <i type="logical" name="LREAL"> F  </i>
    <v name="ROPT">      0.00000000      0.00000000      0.00000000</v>
    <i type="int" name="LMAXPAW">  -100</i>
    <i type="int" name="LMAXMIX">     2</i>
    <i type="logical" name="NLSPLINE"> F  </i>
   </separator>
   <separator name="electronic startup" >
    <i type="int" name="ISTART">     0</i>
    <i type="int" name="ICHARG">     2</i>
    <i type="int" name="INIWAV">     1</i>
   </separator>
   <separator name="electronic spin" >
    <i type="int" name="ISPIN">     1</i>
    <i type="logical" name="LNONCOLLINEAR"> F  </i>
    <v name="MAGMOM">      1.00000000      1.00000000      1.00000000      1.00000000      1.00000000      1.00000000      1.00000000      1.00000000      1.00000000      1.00000000      1.00000000      1.00000000      1.00000000      1.00000000      1.00000000</v>
    <i name="NUPDOWN">     -1.00000000</i>
    <i type="logical" name="LSORBIT"> F  </i>
    <v name="SAXIS">      0.00000000      0.00000000      1.00000000</v>
    <i type="logical" name="LSPIRAL"> F  </i>
    <v name="QSPIRAL">      0.00000000      0.00000000      0.00000000</v>
    <i type="logical" name="LZEROZ"> F  </i>
   </separator>
   <separator name="electronic exchange-correlation" >
    <i type="logical" name="LASPH"> F  </i>
    <i type="logical" name="LMETAGGA"> F  </i>
   </separator>
   <separator name="electronic convergence" >
    <i type="int" name="NELM">    60</i>
    <i type="int" name="NELMDL">    -5</i>
    <i type="int" name="NELMIN">     8</i>
    <i name="ENINI">    450.00000000</i>
    <separator name="electronic convergence detail" >
     <i type="logical" name="LDIAG"> T  </i>
     <i type="logical" name="LSUBROT"> F  </i>
     <i name="WEIMIN">      0.00100000</i>
     <i name="EBREAK">      0.00000000</i>
     <i name="DEPER">      0.30000000</i>
     <i type="int" name="NRMM">     4</i>
     <i name="TIME">      0.40000000</i>
    </separator>
   </separator>
   <separator name="electronic mixer" >
    <i name="AMIX">      0.40000000</i>
    <i name="BMIX">      1.00000000</i>
    <i name="AMIN">      0.10000000</i>
    <i name="AMIX_MAG">      1.60000000</i>
    <i name="BMIX_MAG">      1.00000000</i>
    <separator name="electronic mixer details" >
     <i type="int" name="IMIX">     4</i>
     <i type="logical" name="MIXFIRST"> F  </i>
     <i type="int" name="MAXMIX">   -45</i>
     <i name="WC">    100.00000000</i>
     <i type="int" name="INIMIX">     1</i>
     <i type="int" name="MIXPRE">     1</i>
     <i type="int" name="MREMOVE">     5</i>
    </separator>
   </separator>
   <separator name="electronic dipolcorrection" >
    <i type="logical" name="LDIPOL"> T  </i>
    <i type="logical" name="LMONO"> F  </i>
    <i type="int" name="IDIPOL">     3</i>
    <i name="EPSILON">      1.00000000</i>
    <v name="DIPOL">   -100.00000000   -100.00000000   -100.00000000</v>
    <i name="EFIELD">      0.00000000</i>
   </separator>
  </separator>
  <separator name="grids" >
   <i type="int" name="NGX">    28</i>
   <i type="int" name="NGY">    28</i>
   <i type="int" name="NGZ">   120</i>
   <i type="int" name="NGXF">    56</i>
   <i type="int" name="NGYF">    56</i>
   <i type="int" name="NGZF">   240</i>
   <i type="logical" name="ADDGRID"> F  </i>
  </separator>
  <separator name="ionic" >
   <i type="int" name="NSW">  1500</i>
   <i type="int" name="IBRION">     2</i>
   <i type="int" name="MDALGO">     0</i>
   <i type="int" name="ISIF">     2</i>
   <i name="PSTRESS">      0.00000000</i>
   <i name="EDIFFG">     -0.01000000</i>
   <i type="int" name="NFREE">     1</i>
   <i name="POTIM">      0.23000000</i>
   <i name="SMASS">     -3.00000000</i>
   <i name="SCALEE">      1.00000000</i>
  </separator>
  <separator name="ionic md" >
   <i name="TEBEG">      0.00010000</i>
   <i name="TEEND">      0.00010000</i>
   <i type="int" name="NBLOCK">     1</i>
   <i type="int" name="KBLOCK">  1500</i>
   <i type="int" name="NPACO">   256</i>
   <i name="APACO">     16.00000000</i>
  </separator>
  <separator name="symmetry" >
   <i type="int" name="ISYM">     2</i>
   <i name="SYMPREC">      0.00001000</i>
  </separator>
  <separator name="dos" >
   <i type="int" name="LORBIT">     0</i>
   <v name="RWIGS">     -1.00000000     -1.00000000     -1.00000000</v>
   <i type="int" name="NEDOS">   301</i>
   <i name="EMIN">     10.00000000</i>
   <i name="EMAX">    -10.00000000</i>
   <i name="EFERMI">      0.00000000</i>
  </separator>
  <separator name="writing" >
   <i type="int" name="NWRITE">     2</i>
   <i type="logical" name="LWAVE"> F  </i>
   <i type="logical" name="LDOWNSAMPLE"> F  </i>
   <i type="logical" name="LCHARG"> T  </i>
   <i type="logical" name="LPARD"> F  </i>
   <i type="logical" name="LVTOT"> F  </i>
   <i type="logical" name="LVHAR"> F  </i>
   <i type="logical" name="LELF"> F  </i>
   <i type="logical" name="LOPTICS"> F  </i>
   <v name="STM">      0.00000000      0.00000000      0.00000000      0.00000000      0.00000000      0.00000000      0.00000000</v>
  </separator>
  <separator name="performance" >
   <i type="int" name="NPAR">     2</i>
   <i type="int" name="NSIM">     4</i>
   <i type="int" name="NBLK">    -1</i>
   <i type="logical" name="LPLANE"> T  </i>
   <i type="logical" name="LSCALAPACK"> T  </i>
   <i type="logical" name="LSCAAWARE"> F  </i>
   <i type="logical" name="LSCALU"> F  </i>
   <i type="logical" name="LASYNC"> F  </i>
   <i type="logical" name="LORBITALREAL"> F  </i>
  </separator>
  <separator name="miscellaneous" >
   <i type="int" name="IDIOT">     3</i>
   <i type="int" name="ISPECIAL">     0</i>
   <i type="logical" name="LMUSIC"> F  </i>
   <v name="POMASS">    195.08000000     16.00000000      1.00000000</v>
   <v name="DARWINR">      0.00000000      0.00000000      0.00000000</v>
   <v name="DARWINV">      1.00000000      1.00000000      1.00000000</v>
   <i type="logical" name="LCORR"> T  </i>
  </separator>
  <i type="logical" name="GGA_COMPAT"> T  </i>
  <i type="logical" name="LBERRY"> F  </i>
  <i type="int" name="ICORELEVEL">     0</i>
  <i type="logical" name="LDAU"> F  </i>
  <i type="int" name="I_CONSTRAINED_M">     0</i>
  <separator name="electronic exchange-correlation" >
   <i type="string" name="GGA">91</i>
   <i type="int" name="VOSKOWN">     0</i>
   <i type="logical" name="LHFCALC"> F  </i>
   <i type="string" name="PRECFOCK"></i>
   <i type="logical" name="LSYMGRAD"> F  </i>
   <i type="logical" name="LHFONE"> F  </i>
   <i type="logical" name="LRHFCALC"> F  </i>
   <i type="logical" name="LTHOMAS"> F  </i>
   <i type="logical" name="LMODELHF"> F  </i>
   <i name="ENCUT4O">     -1.00000000</i>
   <i type="int" name="EXXOEP">     0</i>
   <i type="int" name="FOURORBIT">     0</i>
   <i name="AEXX">      0.00000000</i>
   <i name="HFALPHA">      0.00000000</i>
   <i name="MCALPHA">      0.00000000</i>
   <i name="ALDAX">      1.00000000</i>
   <i name="AGGAX">      1.00000000</i>
   <i name="ALDAC">      1.00000000</i>
   <i name="AGGAC">      1.00000000</i>
   <i type="int" name="NKREDX">     1</i>
   <i type="int" name="NKREDY">     1</i>
   <i type="int" name="NKREDZ">     1</i>
   <i type="logical" name="SHIFTRED"> F  </i>
   <i type="logical" name="ODDONLY"> F  </i>
   <i type="logical" name="EVENONLY"> F  </i>
   <i type="int" name="LMAXFOCK">     0</i>
   <i type="int" name="NMAXFOCKAE">     0</i>
   <i type="logical" name="LFOCKAEDFT"> F  </i>
   <i name="HFSCREEN">      0.00000000</i>
   <i name="HFSCREENC">      0.00000000</i>
   <i type="int" name="NBANDSGWLOW">     0</i>
  </separator>
  <separator name="vdW DFT" >
   <i type="logical" name="LUSE_VDW"> F  </i>
   <i name="Zab_VDW">     -0.84910000</i>
   <i name="PARAM1">      0.12340000</i>
   <i name="PARAM2">      1.00000000</i>
   <i name="PARAM3">      0.00000000</i>
  </separator>
  <separator name="model GW" >
   <i type="int" name="MODEL_GW">     0</i>
   <i name="MODEL_EPS0">     18.26964953</i>
   <i name="MODEL_ALPHA">      1.00000000</i>
  </separator>
  <separator name="linear response parameters" >
   <i type="logical" name="LEPSILON"> F  </i>
   <i type="logical" name="LRPA"> F  </i>
   <i type="logical" name="LNABLA"> F  </i>
   <i type="logical" name="LVEL"> F  </i>
   <i type="int" name="KINTER">     0</i>
   <i name="CSHIFT">      0.10000000</i>
   <i name="OMEGAMAX">     -1.00000000</i>
   <i name="DEG_THRESHOLD">      0.00200000</i>
   <i name="RTIME">     -0.10000000</i>
   <i name="WPLASMAI">      0.00000000</i>
   <v name="DFIELD">      0.00000000      0.00000000      0.00000000</v>
   <v name="WPLASMA">      0.00000000      0.00000000      0.00000000      0.00000000      0.00000000      0.00000000      0.00000000      0.00000000      0.00000000</v>
  </separator>
  <separator name="orbital magnetization" >
   <i type="logical" name="NUCIND"> F  </i>
   <v name="MAGPOS">      0.00000000      0.00000000      0.00000000</v>
   <i type="logical" name="LNICSALL"> T  </i>
   <i type="logical" name="ORBITALMAG"> F  </i>
   <i type="logical" name="LMAGBLOCH"> F  </i>
   <i type="logical" name="LCHIMAG"> F  </i>
   <i type="logical" name="LGAUGE"> T  </i>
   <i type="int" name="MAGATOM">     0</i>
   <v name="MAGDIPOL">      0.00000000      0.00000000      0.00000000</v>
   <v name="AVECCONST">      0.00000000      0.00000000      0.00000000</v>
  </separator>
  <separator name="response functions" >
   <i type="logical" name="LADDER"> F  </i>
   <i type="logical" name="LRPAFORCE"> F  </i>
   <i type="logical" name="LFXC"> F  </i>
   <i type="logical" name="LHARTREE"> T  </i>
   <i type="int" name="IBSE">     0</i>
   <v type="int" name="KPOINT">    -1     0     0     0</v>
   <i type="logical" name="LTCTE"> F  </i>
   <i type="logical" name="LTETE"> F  </i>
   <i type="logical" name="LTRIPLET"> F  </i>
   <i type="logical" name="LFXCEPS"> F  </i>
   <i type="logical" name="LFXHEG"> F  </i>
   <i type="int" name="NATURALO">     2</i>
   <i type="logical" name="L2ORDER"> F  </i>
   <i type="logical" name="LMP2LT"> F  </i>
   <i type="logical" name="LUSEW"> F  </i>
   <i name="ENCUTGW">     -2.00000000</i>
   <i name="ENCUTGWSOFT">     -2.00000000</i>
   <i name="ENCUTLF">     -1.00000000</i>
   <i type="int" name="LMAXMP2">    -1</i>
   <i name="SCISSOR">      0.00000000</i>
   <i type="int" name="NOMEGA">     0</i>
   <i type="int" name="NOMEGAR">     0</i>
   <i type="int" name="NBANDSGW">    -1</i>
   <i type="int" name="NBANDSO">    -1</i>
   <i type="int" name="NBANDSV">    -1</i>
   <i type="int" name="NELM">     1</i>
   <i type="int" name="NELMHF">     1</i>
   <i type="int" name="DIM">     3</i>
   <i type="int" name="ANTIRES">     0</i>
   <i name="OMEGAMAX">    -30.00000000</i>
   <i name="OMEGAMIN">    -30.00000000</i>
   <i name="OMEGATL">   -200.00000000</i>
   <i type="int" name="OMEGAGRID">   140</i>
   <i name="CSHIFT">     -0.10000000</i>
   <i type="logical" name="SELFENERGY"> F  </i>
   <i type="logical" name="LSPECTRAL"> F  </i>
   <i type="logical" name="LSPECTRALGW"> F  </i>
   <i type="logical" name="LSINGLES"> F  </i>
   <i type="logical" name="LFERMIGW"> F  </i>
   <i type="logical" name="ODDONLYGW"> F  </i>
   <i type="logical" name="EVENONLYGW"> F  </i>
   <i type="int" name="NKREDLFX">     1</i>
   <i type="int" name="NKREDLFY">     1</i>
   <i type="int" name="NKREDLFZ">     1</i>
   <i type="int" name="MAXMEM">  2800</i>
   <i type="int" name="TELESCOPE">     0</i>
   <i type="int" name="TAUPAR">     1</i>
   <i type="int" name="OMEGAPAR">    -1</i>
   <i name="LAMBDA">      1.00000000</i>
  </separator>
  <separator name="External order field" >
   <i name="OFIELD_KAPPA">      0.00000000</i>
   <v name="OFIELD_K">      0.00000000      0.00000000      0.00000000</v>
   <i name="OFIELD_Q6_NEAR">      0.00000000</i>
   <i name="OFIELD_Q6_FAR">      0.00000000</i>
   <i name="OFIELD_A">      0.00000000</i>
  </separator>
 </parameters>
 <atominfo>
  <atoms>      15 </atoms>
  <types>       3 </types>
  <array name="atoms" >
   <dimension dim="1">ion</dimension>
   <field type="string">element</field>
   <field type="int">atomtype</field>
   <set>
    <rc><c>Pt</c><c>   1</c></rc>
    <rc><c>Pt</c><c>   1</c></rc>
    <rc><c>Pt</c><c>   1</c></rc>
    <rc><c>Pt</c><c>   1</c></rc>
    <rc><c>Pt</c><c>   1</c></rc>
    <rc><c>Pt</c><c>   1</c></rc>
    <rc><c>Pt</c><c>   1</c></rc>
    <rc><c>Pt</c><c>   1</c></rc>
    <rc><c>Pt</c><c>   1</c></rc>
    <rc><c>Pt</c><c>   1</c></rc>
    <rc><c>Pt</c><c>   1</c></rc>
    <rc><c>Pt</c><c>   1</c></rc>
    <rc><c>O </c><c>   2</c></rc>
    <rc><c>O </c><c>   2</c></rc>
    <rc><c>H </c><c>   3</c></rc>
   </set>
  </array>
  <array name="atomtypes" >
   <dimension dim="1">type</dimension>
   <field type="int">atomspertype</field>
   <field type="string">element</field>
   <field>mass</field>
   <field>valence</field>
   <field type="string">pseudopotential</field>
   <set>
    <rc><c>  12</c><c>Pt</c><c>    195.08000000</c><c>     10.00000000</c><c> PAW_PBE Pt 05Jan2001                   </c></rc>
    <rc><c>   2</c><c>O </c><c>     16.00000000</c><c>      6.00000000</c><c> PAW_PBE O 08Apr2002                    </c></rc>
    <rc><c>   1</c><c>H </c><c>      1.00000000</c><c>      1.00000000</c><c> PAW_PBE H 15Jun2001                    </c></rc>
   </set>
  </array>
 </atominfo>
 <structure name="initialpos" >
  <crystal>
   <varray name="basis" >
    <v>       4.88428255       0.00000000       0.00000000 </v>
    <v>       2.44214127       4.22991277       0.00000000 </v>
    <v>       0.00000000       0.00000000      22.10741862 </v>
   </varray>
   <i name="volume">    456.74123834 </i>
   <varray name="rec_basis" >
    <v>       0.20473836      -0.11820575       0.00000000 </v>
    <v>      -0.00000000       0.23641149       0.00000000 </v>
    <v>       0.00000000       0.00000000       0.04523368 </v>
   </varray>
  </crystal>
  <varray name="positions" >
   <v>       0.30286415       0.49410690       0.00209390 </v>
   <v>       0.63619748       0.82744023       0.00209390 </v>
   <v>       0.96953081       0.16077357       0.00209390 </v>
   <v>       0.63619748       0.49410690       0.10624323 </v>
   <v>       0.96953081       0.82744023       0.10624323 </v>
   <v>       0.30286415       0.16077357       0.10624323 </v>
   <v>       0.30436784       0.50240982       0.30998083 </v>
   <v>       0.63679196       0.84001905       0.31745292 </v>
   <v>       0.96476331       0.17344487       0.31548253 </v>
   <v>       0.96931151       0.49371898       0.21060178 </v>
   <v>       0.31095449       0.83266489       0.21084926 </v>
   <v>       0.64329637       0.15807224       0.20780490 </v>
   <v>       0.87041107       0.06395658       0.41438388 </v>
   <v>       0.69503041       0.88882497       0.40693475 </v>
   <v>       0.08154838       0.88964058       0.42569108 </v>
  </varray>
  <varray name="selective"  type="logical" >
   <v type="logical" >  F  F  F </v>
   <v type="logical" >  F  F  F </v>
   <v type="logical" >  F  F  F </v>
   <v type="logical" >  F  F  F </v>
   <v type="logical" >  F  F  F </v>
   <v type="logical" >  F  F  F </v>
   <v type="logical" >  T  T  T </v>
   <v type="logical" >  T  T  T </v>
   <v type="logical" >  T  T  T </v>
   <v type="logical" >  T  T  T </v>
   <v type="logical" >  T  T  T </v>
   <v type="logical" >  T  T  T </v>
   <v type="logical" >  T  T  T </v>
   <v type="logical" >  T  T  T </v>
   <v type="logical" >  T  T  T </v>
  </varray>
  <nose>
   <v>      -3.00000000       0.00000000       0.00010000       0.00010000 </v>
  </nose>
 </structure>
 <calculation>
  <scstep>
   <time name="dav">    7.34    7.45</time>
   <time name="total">    7.41    7.58</time>
   <dipole>
    <v name="dipole">      0.00000000       0.00000000      -0.00008001 </v>
    <i name="Tr[quadrupol]">   -530.45336089 </i>
    <i name="Echarged">      0.00000000 </i>
    <i name="Edipol_quadrupol">      0.00000000 </i>
    <i name="Eion">      0.00000000 </i>
   </dipole>
   <energy>
    <i name="alphaZ">    522.60222824 </i>
    <i name="ewald">  30919.68496189 </i>
    <i name="hartreedc"> -41157.95078445 </i>
    <i name="XCdc">     95.04176132 </i>
    <i name="pawpsdc">   7374.29782092 </i>
    <i name="pawaedc">  -7039.85516993 </i>
    <i name="eentropy">      0.00300912 </i>
    <i name="bandstr">   1025.35034425 </i>
    <i name="atom">   9624.95115657 </i>
    <i name="e_fr_energy">   1364.12532793 </i>
    <i name="e_wo_entrp">   1364.12231881 </i>
    <i name="e_0_energy">   1364.12457565 </i>
   </energy>
  </scstep>
  <scstep>
   <time name="dav">    7.31    7.32</time>
   <time name="total">    7.33    7.33</time>
   <dipole>
    <v name="dipole">      0.00000000       0.00000000      -0.00008001 </v>
    <i name="Tr[quadrupol]">   -530.45336089 </i>
    <i name="Echarged">      0.00000000 </i>
    <i name="Edipol_quadrupol">      0.00000000 </i>
    <i name="Eion">      0.00000000 </i>
   </dipole>
   <energy>
    <i name="e_fr_energy">     77.98173852 </i>
    <i name="e_wo_entrp">     77.98247312 </i>
    <i name="e_0_energy">     77.98192217 </i>
   </energy>
  </scstep>
  <scstep>
   <time name="dav">    9.45    9.46</time>
   <time name="total">    9.47    9.48</time>
   <dipole>
    <v name="dipole">      0.00000000       0.00000000      -0.00008001 </v>
    <i name="Tr[quadrupol]">   -530.45336089 </i>
    <i name="Echarged">      0.00000000 </i>
    <i name="Edipol_quadrupol">      0.00000000 </i>
    <i name="Eion">      0.00000000 </i>
   </dipole>
   <energy>
    <i name="e_fr_energy">    -79.72401321 </i>
    <i name="e_wo_entrp">    -79.72195493 </i>
    <i name="e_0_energy">    -79.72349864 </i>
   </energy>
  </scstep>
  <scstep>
   <time name="dav">    8.99    8.99</time>
   <time name="total">    9.01    9.01</time>
   <dipole>
    <v name="dipole">      0.00000000       0.00000000      -0.00008001 </v>
    <i name="Tr[quadrupol]">   -530.45336089 </i>
    <i name="Echarged">      0.00000000 </i>
    <i name="Edipol_quadrupol">      0.00000000 </i>
    <i name="Eion">      0.00000000 </i>
   </dipole>
   <energy>
    <i name="e_fr_energy">    -90.98596166 </i>
    <i name="e_wo_entrp">    -90.97972844 </i>
    <i name="e_0_energy">    -90.98440336 </i>
   </energy>
  </scstep>
  <scstep>
   <time name="dav">    9.23    9.23</time>
   <time name="total">    9.74    9.76</time>
   <dipole>
    <v name="dipole">      0.00000000       0.00000000      -0.00008001 </v>
    <i name="Tr[quadrupol]">   -530.45336089 </i>
    <i name="Echarged">      0.00000000 </i>
    <i name="Edipol_quadrupol">      0.00000000 </i>
    <i name="Eion">      0.00000000 </i>
   </dipole>
   <energy>
    <i name="e_fr_energy">    -91.39343714 </i>
    <i name="e_wo_entrp">    -91.38591562 </i>
    <i name="e_0_energy">    -91.39155676 </i>
   </energy>
  </scstep>
  <scstep>
   <time name="dav">   10.90   10.91</time>
   <time name="total">   11.43   11.44</time>
   <dipole>
    <v name="dipole">      0.00000000       0.00000000       0.10353368 </v>
    <i name="Tr[quadrupol]">   -527.46309147 </i>
    <i name="Echarged">      0.00000000 </i>
    <i name="Edipol_quadrupol">      0.00000000 </i>
    <i name="Eion">      0.00000000 </i>
   </dipole>
   <energy>
    <i name="e_fr_energy">    -87.98888643 </i>
    <i name="e_wo_entrp">    -87.97315028 </i>
    <i name="e_0_energy">    -87.98495240 </i>
   </energy>
  </scstep>
  <scstep>
   <time name="dav">   11.86   11.87</time>
   <time name="total">   12.38   12.39</time>
   <dipole>
    <v name="dipole">      0.00000000       0.00000000      -0.25199757 </v>
    <i name="Tr[quadrupol]">   -530.95748914 </i>
    <i name="Echarged">      0.00000000 </i>
    <i name="Edipol_quadrupol">      0.00000000 </i>
    <i name="Eion">      0.00000000 </i>
   </dipole>
   <energy>
    <i name="e_fr_energy">    -89.09923096 </i>
    <i name="e_wo_entrp">    -89.10191313 </i>
    <i name="e_0_energy">    -89.09990150 </i>
   </energy>
  </scstep>
  <scstep>
   <time name="dav">   11.18   11.19</time>
   <time name="total">   11.70   11.70</time>
   <dipole>
    <v name="dipole">      0.00000000       0.00000000       0.33702511 </v>
    <i name="Tr[quadrupol]">   -531.15618177 </i>
    <i name="Echarged">      0.00000000 </i>
    <i name="Edipol_quadrupol">      0.00000000 </i>
    <i name="Eion">      0.00000000 </i>
   </dipole>
   <energy>
    <i name="e_fr_energy">    -95.89027471 </i>
    <i name="e_wo_entrp">    -95.89129829 </i>
    <i name="e_0_energy">    -95.89053061 </i>
   </energy>
  </scstep>
  <scstep>
   <time name="dav">   12.13   12.13</time>
   <time name="total">   12.66   12.66</time>
   <dipole>
    <v name="dipole">      0.00000000       0.00000000      -0.18172129 </v>
    <i name="Tr[quadrupol]">   -529.97194603 </i>
    <i name="Echarged">      0.00000000 </i>
    <i name="Edipol_quadrupol">      0.00000000 </i>
    <i name="Eion">      0.00000000 </i>
   </dipole>
   <energy>
    <i name="e_fr_energy">    -85.85114649 </i>
    <i name="e_wo_entrp">    -85.84811060 </i>
    <i name="e_0_energy">    -85.85038752 </i>
   </energy>
  </scstep>
  <scstep>
   <time name="dav">   10.77   10.78</time>
   <time name="total">   11.29   11.30</time>
   <dipole>
    <v name="dipole">      0.00000000       0.00000000      -0.02664191 </v>
    <i name="Tr[quadrupol]">   -530.62613203 </i>
    <i name="Echarged">      0.00000000 </i>
    <i name="Edipol_quadrupol">      0.00000000 </i>
    <i name="Eion">      0.00000000 </i>
   </dipole>
   <energy>
    <i name="e_fr_energy">    -84.76348118 </i>
    <i name="e_wo_entrp">    -84.76983259 </i>
    <i name="e_0_energy">    -84.76506903 </i>
   </energy>
  </scstep>
  <scstep>
   <time name="dav">    9.70    9.71</time>
   <time name="total">   10.22   10.22</time>
   <dipole>
    <v name="dipole">      0.00000000       0.00000000      -0.05872872 </v>
    <i name="Tr[quadrupol]">   -530.44238882 </i>
    <i name="Echarged">      0.00000000 </i>
    <i name="Edipol_quadrupol">      0.00000000 </i>
    <i name="Eion">      0.00000000 </i>
   </dipole>
   <energy>
    <i name="e_fr_energy">    -84.34748572 </i>
    <i name="e_wo_entrp">    -84.35363625 </i>
    <i name="e_0_energy">    -84.34902336 </i>
   </energy>
  </scstep>
  <scstep>
   <time name="dav">    9.97    9.97</time>
   <time name="total">   10.48   10.49</time>
   <dipole>
    <v name="dipole">      0.00000000       0.00000000      -0.04978987 </v>
    <i name="Tr[quadrupol]">   -530.39827881 </i>
    <i name="Echarged">      0.00000000 </i>
    <i name="Edipol_quadrupol">      0.00000000 </i>
    <i name="Eion">      0.00000000 </i>
   </dipole>
   <energy>
    <i name="e_fr_energy">    -84.25651734 </i>
    <i name="e_wo_entrp">    -84.25410285 </i>
    <i name="e_0_energy">    -84.25591372 </i>
   </energy>
  </scstep>
  <scstep>
   <time name="dav">   11.13   11.13</time>
   <time name="total">   11.64   11.65</time>
   <dipole>
    <v name="dipole">      0.00000000       0.00000000      -0.04046152 </v>
    <i name="Tr[quadrupol]">   -530.32581187 </i>
    <i name="Echarged">      0.00000000 </i>
    <i name="Edipol_quadrupol">      0.00000000 </i>
    <i name="Eion">      0.00000000 </i>
   </dipole>
   <energy>
    <i name="e_fr_energy">    -84.19126764 </i>
    <i name="e_wo_entrp">    -84.19688613 </i>
    <i name="e_0_energy">    -84.19267227 </i>
   </energy>
  </scstep>
  <scstep>
   <time name="dav">   10.58   10.59</time>
   <time name="total">   11.10   11.10</time>
   <dipole>
    <v name="dipole">      0.00000000       0.00000000      -0.04216525 </v>
    <i name="Tr[quadrupol]">   -530.30156188 </i>
    <i name="Echarged">      0.00000000 </i>
    <i name="Edipol_quadrupol">      0.00000000 </i>
    <i name="Eion">      0.00000000 </i>
   </dipole>
   <energy>
    <i name="e_fr_energy">    -84.14103710 </i>
    <i name="e_wo_entrp">    -84.13765750 </i>
    <i name="e_0_energy">    -84.14019220 </i>
   </energy>
  </scstep>
  <scstep>
   <time name="dav">    9.49    9.50</time>
   <time name="total">   10.01   10.01</time>
   <dipole>
    <v name="dipole">      0.00000000       0.00000000      -0.03736537 </v>
    <i name="Tr[quadrupol]">   -530.34331627 </i>
    <i name="Echarged">      0.00000000 </i>
    <i name="Edipol_quadrupol">      0.00000000 </i>
    <i name="Eion">      0.00000000 </i>
   </dipole>
   <energy>
    <i name="e_fr_energy">    -84.13196465 </i>
    <i name="e_wo_entrp">    -84.13134108 </i>
    <i name="e_0_energy">    -84.13180876 </i>
   </energy>
  </scstep>
  <scstep>
   <time name="dav">   10.25   10.25</time>
   <time name="total">   10.77   10.77</time>
   <dipole>
    <v name="dipole">      0.00000000       0.00000000      -0.03123653 </v>
    <i name="Tr[quadrupol]">   -530.41395032 </i>
    <i name="Echarged">      0.00000000 </i>
    <i name="Edipol_quadrupol">      0.00000000 </i>
    <i name="Eion">      0.00000000 </i>
   </dipole>
   <energy>
    <i name="e_fr_energy">    -84.12925938 </i>
    <i name="e_wo_entrp">    -84.12841883 </i>
    <i name="e_0_energy">    -84.12904924 </i>
   </energy>
  </scstep>
  <scstep>
   <time name="dav">    9.71    9.72</time>
   <time name="total">   10.23   10.24</time>
   <dipole>
    <v name="dipole">      0.00000000       0.00000000      -0.03490793 </v>
    <i name="Tr[quadrupol]">   -530.42527865 </i>
    <i name="Echarged">      0.00000000 </i>
    <i name="Edipol_quadrupol">      0.00000000 </i>
    <i name="Eion">      0.00000000 </i>
   </dipole>
   <energy>
    <i name="e_fr_energy">    -84.12536319 </i>
    <i name="e_wo_entrp">    -84.12552260 </i>
    <i name="e_0_energy">    -84.12540304 </i>
   </energy>
  </scstep>
  <scstep>
   <time name="dav">    9.81    9.82</time>
   <time name="total">   10.34   10.34</time>
   <dipole>
    <v name="dipole">      0.00000000       0.00000000      -0.03779713 </v>
    <i name="Tr[quadrupol]">   -530.43401486 </i>
    <i name="Echarged">      0.00000000 </i>
    <i name="Edipol_quadrupol">      0.00000000 </i>
    <i name="Eion">      0.00000000 </i>
   </dipole>
   <energy>
    <i name="e_fr_energy">    -84.12408753 </i>
    <i name="e_wo_entrp">    -84.12379236 </i>
    <i name="e_0_energy">    -84.12401374 </i>
   </energy>
  </scstep>
  <scstep>
   <time name="dav">    9.54    9.55</time>
   <time name="total">   10.07   10.07</time>
   <dipole>
    <v name="dipole">      0.00000000       0.00000000      -0.04049780 </v>
    <i name="Tr[quadrupol]">   -530.46319696 </i>
    <i name="Echarged">      0.00000000 </i>
    <i name="Edipol_quadrupol">      0.00000000 </i>
    <i name="Eion">      0.00000000 </i>
   </dipole>
   <energy>
    <i name="e_fr_energy">    -84.12391636 </i>
    <i name="e_wo_entrp">    -84.12350596 </i>
    <i name="e_0_energy">    -84.12381376 </i>
   </energy>
  </scstep>
  <scstep>
   <time name="dav">    9.01    9.02</time>
   <time name="total">    9.53    9.54</time>
   <dipole>
    <v name="dipole">      0.00000000       0.00000000      -0.04151027 </v>
    <i name="Tr[quadrupol]">   -530.48577076 </i>
    <i name="Echarged">      0.00000000 </i>
    <i name="Edipol_quadrupol">      0.00000000 </i>
    <i name="Eion">      0.00000000 </i>
   </dipole>
   <energy>
    <i name="e_fr_energy">    -84.12384823 </i>
    <i name="e_wo_entrp">    -84.12349382 </i>
    <i name="e_0_energy">    -84.12375963 </i>
   </energy>
  </scstep>
  <scstep>
   <time name="dav">    8.78    8.79</time>
   <time name="total">    9.30    9.31</time>
   <dipole>
    <v name="dipole">      0.00000000       0.00000000      -0.04295927 </v>
    <i name="Tr[quadrupol]">   -530.51628757 </i>
    <i name="Echarged">      0.00000000 </i>
    <i name="Edipol_quadrupol">      0.00000000 </i>
    <i name="Eion">      0.00000000 </i>
   </dipole>
   <energy>
    <i name="e_fr_energy">    -84.12380076 </i>
    <i name="e_wo_entrp">    -84.12338335 </i>
    <i name="e_0_energy">    -84.12369640 </i>
   </energy>
  </scstep>
  <scstep>
   <time name="dav">    8.07    8.08</time>
   <time name="total">    8.59    8.60</time>
   <dipole>
    <v name="dipole">      0.00000000       0.00000000      -0.04387451 </v>
    <i name="Tr[quadrupol]">   -530.54074370 </i>
    <i name="Echarged">      0.00000000 </i>
    <i name="Edipol_quadrupol">      0.00000000 </i>
    <i name="Eion">      0.00000000 </i>
   </dipole>
   <energy>
    <i name="e_fr_energy">    -84.12383440 </i>
    <i name="e_wo_entrp">    -84.12343372 </i>
    <i name="e_0_energy">    -84.12373423 </i>
   </energy>
  </scstep>
  <scstep>
   <time name="dav">    8.98    8.98</time>
   <time name="total">    9.49    9.50</time>
   <dipole>
    <v name="dipole">      0.00000000       0.00000000      -0.04473732 </v>
    <i name="Tr[quadrupol]">   -530.55940342 </i>
    <i name="Echarged">      0.00000000 </i>
    <i name="Edipol_quadrupol">      0.00000000 </i>
    <i name="Eion">      0.00000000 </i>
   </dipole>
   <energy>
    <i name="e_fr_energy">    -84.12389680 </i>
    <i name="e_wo_entrp">    -84.12350161 </i>
    <i name="e_0_energy">    -84.12379800 </i>
   </energy>
  </scstep>
  <scstep>
   <time name="dav">    9.93    9.94</time>
   <time name="total">   10.44   10.45</time>
   <dipole>
    <v name="dipole">      0.00000000       0.00000000      -0.04564599 </v>
    <i name="Tr[quadrupol]">   -530.57995624 </i>
    <i name="Echarged">      0.00000000 </i>
    <i name="Edipol_quadrupol">      0.00000000 </i>
    <i name="Eion">      0.00000000 </i>
   </dipole>
   <energy>
    <i name="e_fr_energy">    -84.12402680 </i>
    <i name="e_wo_entrp">    -84.12365176 </i>
    <i name="e_0_energy">    -84.12393304 </i>
   </energy>
  </scstep>
  <scstep>
   <time name="dav">    9.17    9.17</time>
   <time name="total">    9.69    9.69</time>
   <dipole>
    <v name="dipole">      0.00000000       0.00000000      -0.04777701 </v>
    <i name="Tr[quadrupol]">   -530.61170555 </i>
    <i name="Echarged">      0.00000000 </i>
    <i name="Edipol_quadrupol">      0.00000000 </i>
    <i name="Eion">      0.00000000 </i>
   </dipole>
   <energy>
    <i name="e_fr_energy">    -84.12423358 </i>
    <i name="e_wo_entrp">    -84.12385405 </i>
    <i name="e_0_energy">    -84.12413870 </i>
   </energy>
  </scstep>
  <scstep>
   <time name="dav">    9.02    9.03</time>
   <time name="total">    9.54    9.55</time>
   <dipole>
    <v name="dipole">      0.00000000       0.00000000      -0.04882482 </v>
    <i name="Tr[quadrupol]">   -530.63261971 </i>
    <i name="Echarged">      0.00000000 </i>
    <i name="Edipol_quadrupol">      0.00000000 </i>
    <i name="Eion">      0.00000000 </i>
   </dipole>
   <energy>
    <i name="e_fr_energy">    -84.12435138 </i>
    <i name="e_wo_entrp">    -84.12397270 </i>
    <i name="e_0_energy">    -84.12425671 </i>
   </energy>
  </scstep>
  <scstep>
   <time name="dav">   10.33   10.33</time>
   <time name="total">   10.85   10.85</time>
   <dipole>
    <v name="dipole">      0.00000000       0.00000000      -0.05335473 </v>
    <i name="Tr[quadrupol]">   -530.74747059 </i>
    <i name="Echarged">      0.00000000 </i>
    <i name="Edipol_quadrupol">      0.00000000 </i>
    <i name="Eion">      0.00000000 </i>
   </dipole>
   <energy>
    <i name="e_fr_energy">    -84.12459762 </i>
    <i name="e_wo_entrp">    -84.12417709 </i>
    <i name="e_0_energy">    -84.12449249 </i>
   </energy>
  </scstep>
  <scstep>
   <time name="dav">   10.05   10.05</time>
   <time name="total">   10.57   10.57</time>
   <dipole>
    <v name="dipole">      0.00000000       0.00000000      -0.05517331 </v>
    <i name="Tr[quadrupol]">   -530.79678618 </i>
    <i name="Echarged">      0.00000000 </i>
    <i name="Edipol_quadrupol">      0.00000000 </i>
    <i name="Eion">      0.00000000 </i>
   </dipole>
   <energy>
    <i name="e_fr_energy">    -84.12478523 </i>
    <i name="e_wo_entrp">    -84.12434724 </i>
    <i name="e_0_energy">    -84.12467573 </i>
   </energy>
  </scstep>
  <scstep>
   <time name="dav">    8.16    8.16</time>
   <time name="total">    8.68    8.68</time>
   <dipole>
    <v name="dipole">      0.00000000       0.00000000      -0.05526519 </v>
    <i name="Tr[quadrupol]">   -530.82363644 </i>
    <i name="Echarged">      0.00000000 </i>
    <i name="Edipol_quadrupol">      0.00000000 </i>
    <i name="Eion">      0.00000000 </i>
   </dipole>
   <energy>
    <i name="e_fr_energy">    -84.12476267 </i>
    <i name="e_wo_entrp">    -84.12432970 </i>
    <i name="e_0_energy">    -84.12465443 </i>
   </energy>
  </scstep>
  <scstep>
   <time name="dav">    5.77    5.77</time>
   <time name="total">    6.29    6.29</time>
   <dipole>
    <v name="dipole">      0.00000000       0.00000000      -0.05447923 </v>
    <i name="Tr[quadrupol]">   -530.83961351 </i>
    <i name="Echarged">      0.00000000 </i>
    <i name="Edipol_quadrupol">      0.00000000 </i>
    <i name="Eion">      0.00000000 </i>
   </dipole>
   <energy>
    <i name="e_fr_energy">    -84.12463661 </i>
    <i name="e_wo_entrp">    -84.12422210 </i>
    <i name="e_0_energy">    -84.12453298 </i>
   </energy>
  </scstep>
  <scstep>
   <time name="dav">    8.75    8.75</time>
   <time name="total">    9.26    9.27</time>
   <dipole>
    <v name="dipole">      0.00000000       0.00000000      -0.05378949 </v>
    <i name="Tr[quadrupol]">   -530.84233840 </i>
    <i name="Echarged">      0.00000000 </i>
    <i name="Edipol_quadrupol">      0.00000000 </i>
    <i name="Eion">      0.00000000 </i>
   </dipole>
   <energy>
    <i name="e_fr_energy">    -84.12457593 </i>
    <i name="e_wo_entrp">    -84.12417352 </i>
    <i name="e_0_energy">    -84.12447533 </i>
   </energy>
  </scstep>
  <scstep>
   <time name="dav">    6.02    6.02</time>
   <time name="total">    6.54    6.54</time>
   <dipole>
    <v name="dipole">      0.00000000       0.00000000      -0.05257552 </v>
    <i name="Tr[quadrupol]">   -530.84575214 </i>
    <i name="Echarged">      0.00000000 </i>
    <i name="Edipol_quadrupol">      0.00000000 </i>
    <i name="Eion">      0.00000000 </i>
   </dipole>
   <energy>
    <i name="e_fr_energy">    -84.12451395 </i>
    <i name="e_wo_entrp">    -84.12412982 </i>
    <i name="e_0_energy">    -84.12441791 </i>
   </energy>
  </scstep>
  <scstep>
   <time name="dav">    9.45    9.45</time>
   <time name="total">    9.97    9.98</time>
   <dipole>
    <v name="dipole">      0.00000000       0.00000000      -0.05190247 </v>
    <i name="Tr[quadrupol]">   -530.84639778 </i>
    <i name="Echarged">      0.00000000 </i>
    <i name="Edipol_quadrupol">      0.00000000 </i>
    <i name="Eion">      0.00000000 </i>
   </dipole>
   <energy>
    <i name="e_fr_energy">    -84.12450990 </i>
    <i name="e_wo_entrp">    -84.12413513 </i>
    <i name="e_0_energy">    -84.12441621 </i>
   </energy>
  </scstep>
  <scstep>
   <time name="dav">    6.94    6.94</time>
   <time name="total">    7.46    7.46</time>
   <dipole>
    <v name="dipole">      0.00000000       0.00000000      -0.05152202 </v>
    <i name="Tr[quadrupol]">   -530.83806319 </i>
    <i name="Echarged">      0.00000000 </i>
    <i name="Edipol_quadrupol">      0.00000000 </i>
    <i name="Eion">      0.00000000 </i>
   </dipole>
   <energy>
    <i name="e_fr_energy">    -84.12451369 </i>
    <i name="e_wo_entrp">    -84.12414340 </i>
    <i name="e_0_energy">    -84.12442112 </i>
   </energy>
  </scstep>
  <scstep>
   <time name="dav">    8.88    9.16</time>
   <time name="total">    9.41    9.68</time>
   <dipole>
    <v name="dipole">      0.00000000       0.00000000      -0.05129972 </v>
    <i name="Tr[quadrupol]">   -530.82878336 </i>
    <i name="Echarged">      0.00000000 </i>
    <i name="Edipol_quadrupol">      0.00000000 </i>
    <i name="Eion">      0.00000000 </i>
   </dipole>
   <energy>
    <i name="e_fr_energy">    -84.12451743 </i>
    <i name="e_wo_entrp">    -84.12414891 </i>
    <i name="e_0_energy">    -84.12442530 </i>
   </energy>
  </scstep>
  <scstep>
   <time name="dav">    5.51    5.52</time>
   <time name="total">    6.03    6.04</time>
   <dipole>
    <v name="dipole">      0.00000000       0.00000000      -0.05065462 </v>
    <i name="Tr[quadrupol]">   -530.76359781 </i>
    <i name="Echarged">      0.00000000 </i>
    <i name="Edipol_quadrupol">      0.00000000 </i>
    <i name="Eion">      0.00000000 </i>
   </dipole>
   <energy>
    <i name="e_fr_energy">    -84.12453125 </i>
    <i name="e_wo_entrp">    -84.12416929 </i>
    <i name="e_0_energy">    -84.12444076 </i>
   </energy>
  </scstep>
  <scstep>
   <time name="dav">    6.43    6.43</time>
   <time name="total">    6.95    6.95</time>
   <dipole>
    <v name="dipole">      0.00000000       0.00000000      -0.05025692 </v>
    <i name="Tr[quadrupol]">   -530.72629036 </i>
    <i name="Echarged">      0.00000000 </i>
    <i name="Edipol_quadrupol">      0.00000000 </i>
    <i name="Eion">      0.00000000 </i>
   </dipole>
   <energy>
    <i name="e_fr_energy">    -84.12454132 </i>
    <i name="e_wo_entrp">    -84.12418314 </i>
    <i name="e_0_energy">    -84.12445178 </i>
   </energy>
  </scstep>
  <scstep>
   <time name="dav">    5.49    5.50</time>
   <time name="total">    6.01    6.02</time>
   <dipole>
    <v name="dipole">      0.00000000       0.00000000      -0.05008732 </v>
    <i name="Tr[quadrupol]">   -530.70783782 </i>
    <i name="Echarged">      0.00000000 </i>
    <i name="Edipol_quadrupol">      0.00000000 </i>
    <i name="Eion">      0.00000000 </i>
   </dipole>
   <energy>
    <i name="e_fr_energy">    -84.12454554 </i>
    <i name="e_wo_entrp">    -84.12418857 </i>
    <i name="e_0_energy">    -84.12445629 </i>
   </energy>
  </scstep>
  <scstep>
   <time name="dav">    5.44    5.44</time>
   <time name="total">    5.96    5.96</time>
   <dipole>
    <v name="dipole">      0.00000000       0.00000000      -0.04999742 </v>
    <i name="Tr[quadrupol]">   -530.69867722 </i>
    <i name="Echarged">      0.00000000 </i>
    <i name="Edipol_quadrupol">      0.00000000 </i>
    <i name="Eion">      0.00000000 </i>
   </dipole>
   <energy>
    <i name="e_fr_energy">    -84.12454853 </i>
    <i name="e_wo_entrp">    -84.12419252 </i>
    <i name="e_0_energy">    -84.12445952 </i>
   </energy>
  </scstep>
  <scstep>
   <time name="dav">    5.04    5.04</time>
   <time name="total">    5.56    5.56</time>
   <dipole>
    <v name="dipole">      0.00000000       0.00000000      -0.04997933 </v>
    <i name="Tr[quadrupol]">   -530.69877234 </i>
    <i name="Echarged">      0.00000000 </i>
    <i name="Edipol_quadrupol">      0.00000000 </i>
    <i name="Eion">      0.00000000 </i>
   </dipole>
   <energy>
    <i name="e_fr_energy">    -84.12455063 </i>
    <i name="e_wo_entrp">    -84.12419489 </i>
    <i name="e_0_energy">    -84.12446170 </i>
   </energy>
  </scstep>
  <scstep>
   <time name="dav">    5.01    5.02</time>
   <time name="total">    5.53    5.54</time>
   <dipole>
    <v name="dipole">      0.00000000       0.00000000      -0.04999598 </v>
    <i name="Tr[quadrupol]">   -530.69876874 </i>
    <i name="Echarged">      0.00000000 </i>
    <i name="Edipol_quadrupol">      0.00000000 </i>
    <i name="Eion">      0.00000000 </i>
   </dipole>
   <energy>
    <i name="e_fr_energy">    -84.12454913 </i>
    <i name="e_wo_entrp">    -84.12419311 </i>
    <i name="e_0_energy">    -84.12446013 </i>
   </energy>
  </scstep>
  <scstep>
   <time name="dav">    5.06    5.06</time>
   <time name="total">    5.09    5.10</time>
   <dipole>
    <v name="dipole">      0.00000000       0.00000000      -0.05000172 </v>
    <i name="Tr[quadrupol]">   -530.69877439 </i>
    <i name="Echarged">      0.00000000 </i>
    <i name="Edipol_quadrupol">      0.00000000 </i>
    <i name="Eion">      0.00000000 </i>
   </dipole>
   <energy>
    <i name="alphaZ">    520.63447826 </i>
    <i name="ewald">  30919.68496189 </i>
    <i name="hartreedc"> -41059.60516950 </i>
    <i name="XCdc">     91.79450117 </i>
    <i name="pawpsdc">   7643.24380964 </i>
    <i name="pawaedc">  -7336.06393515 </i>
    <i name="eentropy">     -0.00035614 </i>
    <i name="bandstr">   -488.76399568 </i>
    <i name="atom">   9624.95115657 </i>
    <i name="e_fr_energy">    -84.12454892 </i>
    <i name="e_wo_entrp">    -84.12419279 </i>
    <i name="e_0_energy">    -84.12445989 </i>
   </energy>
  </scstep>
  <structure>
   <crystal>
    <varray name="basis" >
     <v>       4.88428255       0.00000000       0.00000000 </v>
     <v>       2.44214127       4.22991277       0.00000000 </v>
     <v>       0.00000000       0.00000000      22.10741862 </v>
    </varray>
    <i name="volume">    456.74123834 </i>
    <varray name="rec_basis" >
     <v>       0.20473836      -0.11820575       0.00000000 </v>
     <v>      -0.00000000       0.23641149       0.00000000 </v>
     <v>       0.00000000       0.00000000       0.04523368 </v>
    </varray>
   </crystal>
   <varray name="positions" >
    <v>       0.30286415       0.49410690       0.00209390 </v>
    <v>       0.63619748       0.82744023       0.00209390 </v>
    <v>       0.96953081       0.16077357       0.00209390 </v>
    <v>       0.63619748       0.49410690       0.10624323 </v>
    <v>       0.96953081       0.82744023       0.10624323 </v>
    <v>       0.30286415       0.16077357       0.10624323 </v>
    <v>       0.30436784       0.50240982       0.30998083 </v>
    <v>       0.63679196       0.84001905       0.31745292 </v>
    <v>       0.96476331       0.17344487       0.31548253 </v>
    <v>       0.96931151       0.49371898       0.21060178 </v>
    <v>       0.31095449       0.83266489       0.21084926 </v>
    <v>       0.64329637       0.15807224       0.20780490 </v>
    <v>       0.87041107       0.06395658       0.41438388 </v>
    <v>       0.69503041       0.88882497       0.40693475 </v>
    <v>       0.08154838       0.88964058       0.42569108 </v>
   </varray>
  </structure>
  <varray name="forces" >
   <v>      -0.02754693       0.01896090      -0.01789461 </v>
   <v>      -0.03448673      -0.01077394      -0.20757646 </v>
   <v>       0.00580877      -0.01148363      -0.17277663 </v>
   <v>       0.08329671       0.11391193       0.08744809 </v>
   <v>       0.00206247      -0.09394692       0.21895283 </v>
   <v>      -0.04129151      -0.04123093       0.10713633 </v>
   <v>       0.00174835       0.00413487      -0.00723614 </v>
   <v>       0.00975212       0.00641972       0.03996379 </v>
   <v>      -0.00847338      -0.00401731      -0.00136125 </v>
   <v>       0.00612493       0.00059874      -0.00043557 </v>
   <v>      -0.00249928       0.00224986      -0.00844849 </v>
   <v>       0.00325557       0.00611020      -0.00815919 </v>
   <v>      -0.03007026       0.01340729      -0.02024522 </v>
   <v>       0.00902043       0.01144600      -0.01666404 </v>
   <v>       0.02329874      -0.01578679       0.00729656 </v>
  </varray>
  <varray name="stress" >
   <v>     -38.05033325      -1.74563565       0.74247568 </v>
   <v>      -1.74563560     -35.32216675       0.37591993 </v>
   <v>       0.74247566       0.37591991       1.31993738 </v>
  </varray>
  <energy>
   <i name="e_fr_energy">    -84.12454892 </i>
   <i name="e_wo_entrp">    -84.12445989 </i>
   <i name="e_0_energy">     -0.00035614 </i>
  </energy>
  <time name="totalsc">  389.74  390.50</time>
 </calculation>
 <calculation>
  <scstep>
   <time name="dav">    7.25    7.26</time>
   <time name="total">    7.77    7.78</time>
   <dipole>
    <v name="dipole">      0.00000000       0.00000000      -0.05021746 </v>
    <i name="Tr[quadrupol]">   -530.68941324 </i>
    <i name="Echarged">      0.00000000 </i>
    <i name="Edipol_quadrupol">      0.00000000 </i>
    <i name="Eion">      0.00000000 </i>
   </dipole>
   <energy>
    <i name="alphaZ">    520.62595616 </i>
    <i name="ewald">  30919.89382123 </i>
    <i name="hartreedc"> -41059.82814217 </i>
    <i name="XCdc">     91.79443744 </i>
    <i name="pawpsdc">   7643.24199198 </i>
    <i name="pawaedc">  -7336.06202016 </i>
    <i name="eentropy">     -0.00034139 </i>
    <i name="bandstr">   -488.74142205 </i>
    <i name="atom">   9624.95115657 </i>
    <i name="e_fr_energy">    -84.12456238 </i>
    <i name="e_wo_entrp">    -84.12422099 </i>
    <i name="e_0_energy">    -84.12447703 </i>
   </energy>
  </scstep>
  <scstep>
   <time name="dav">   12.00   12.00</time>
   <time name="total">   12.51   12.52</time>
   <dipole>
    <v name="dipole">      0.00000000       0.00000000      -0.06008652 </v>
    <i name="Tr[quadrupol]">   -530.72923556 </i>
    <i name="Echarged">      0.00000000 </i>
    <i name="Edipol_quadrupol">      0.00000000 </i>
    <i name="Eion">      0.00000000 </i>
   </dipole>
   <energy>
    <i name="e_fr_energy">    -84.13102246 </i>
    <i name="e_wo_entrp">    -84.13059946 </i>
    <i name="e_0_energy">    -84.13091671 </i>
   </energy>
  </scstep>
  <scstep>
   <time name="dav">   11.92   11.93</time>
   <time name="total">   12.44   12.45</time>
   <dipole>
    <v name="dipole">      0.00000000       0.00000000      -0.05160188 </v>
    <i name="Tr[quadrupol]">   -530.72153784 </i>
    <i name="Echarged">      0.00000000 </i>
    <i name="Edipol_quadrupol">      0.00000000 </i>
    <i name="Eion">      0.00000000 </i>
   </dipole>
   <energy>
    <i name="e_fr_energy">    -84.12460215 </i>
    <i name="e_wo_entrp">    -84.12419838 </i>
    <i name="e_0_energy">    -84.12450121 </i>
   </energy>
  </scstep>
  <scstep>
   <time name="dav">    9.54    9.54</time>
   <time name="total">   10.06   10.06</time>
   <dipole>
    <v name="dipole">      0.00000000       0.00000000      -0.05114442 </v>
    <i name="Tr[quadrupol]">   -530.70850845 </i>
    <i name="Echarged">      0.00000000 </i>
    <i name="Edipol_quadrupol">      0.00000000 </i>
    <i name="Eion">      0.00000000 </i>
   </dipole>
   <energy>
    <i name="e_fr_energy">    -84.12456195 </i>
    <i name="e_wo_entrp">    -84.12425563 </i>
    <i name="e_0_energy">    -84.12448537 </i>
   </energy>
  </scstep>
  <scstep>
   <time name="dav">    9.57    9.58</time>
   <time name="total">   10.09   10.10</time>
   <dipole>
    <v name="dipole">      0.00000000       0.00000000      -0.05125118 </v>
    <i name="Tr[quadrupol]">   -530.70179624 </i>
    <i name="Echarged">      0.00000000 </i>
    <i name="Edipol_quadrupol">      0.00000000 </i>
    <i name="Eion">      0.00000000 </i>
   </dipole>
   <energy>
    <i name="e_fr_energy">    -84.12455730 </i>
    <i name="e_wo_entrp">    -84.12419584 </i>
    <i name="e_0_energy">    -84.12446694 </i>
   </energy>
  </scstep>
  <scstep>
   <time name="dav">    6.98    6.99</time>
   <time name="total">    7.50    7.51</time>
   <dipole>
    <v name="dipole">      0.00000000       0.00000000      -0.05129636 </v>
    <i name="Tr[quadrupol]">   -530.70119597 </i>
    <i name="Echarged">      0.00000000 </i>
    <i name="Edipol_quadrupol">      0.00000000 </i>
    <i name="Eion">      0.00000000 </i>
   </dipole>
   <energy>
    <i name="e_fr_energy">    -84.12455699 </i>
    <i name="e_wo_entrp">    -84.12415641 </i>
    <i name="e_0_energy">    -84.12445684 </i>
   </energy>
  </scstep>
  <scstep>
   <time name="dav">    6.01    6.01</time>
   <time name="total">    6.53    6.53</time>
   <dipole>
    <v name="dipole">      0.00000000       0.00000000      -0.05123336 </v>
    <i name="Tr[quadrupol]">   -530.70234754 </i>
    <i name="Echarged">      0.00000000 </i>
    <i name="Edipol_quadrupol">      0.00000000 </i>
    <i name="Eion">      0.00000000 </i>
   </dipole>
   <energy>
    <i name="e_fr_energy">    -84.12455591 </i>
    <i name="e_wo_entrp">    -84.12422109 </i>
    <i name="e_0_energy">    -84.12447221 </i>
   </energy>
  </scstep>
  <scstep>
   <time name="dav">    5.62    5.62</time>
   <time name="total">    5.66    5.66</time>
   <dipole>
    <v name="dipole">      0.00000000       0.00000000      -0.05116848 </v>
    <i name="Tr[quadrupol]">   -530.70239022 </i>
    <i name="Echarged">      0.00000000 </i>
    <i name="Edipol_quadrupol">      0.00000000 </i>
    <i name="Eion">      0.00000000 </i>
   </dipole>
   <energy>
    <i name="alphaZ">    520.83688349 </i>
    <i name="ewald">  30919.89382123 </i>
    <i name="hartreedc"> -41059.92770190 </i>
    <i name="XCdc">     91.79371793 </i>
    <i name="pawpsdc">   7643.25735526 </i>
    <i name="pawaedc">  -7336.07716452 </i>
    <i name="eentropy">     -0.00037061 </i>
    <i name="bandstr">   -488.85225331 </i>
    <i name="atom">   9624.95115657 </i>
    <i name="e_fr_energy">    -84.12455585 </i>
    <i name="e_wo_entrp">    -84.12418524 </i>
    <i name="e_0_energy">    -84.12446320 </i>
   </energy>
  </scstep>
  <structure>
   <crystal>
    <varray name="basis" >
     <v>       4.88428255       0.00000000       0.00000000 </v>
     <v>       2.44214127       4.22991277       0.00000000 </v>
     <v>       0.00000000       0.00000000      22.10741862 </v>
    </varray>
    <i name="volume">    456.74123834 </i>
    <varray name="rec_basis" >
     <v>       0.20473836      -0.11820575       0.00000000 </v>
     <v>      -0.00000000       0.23641149       0.00000000 </v>
     <v>       0.00000000       0.00000000       0.04523368 </v>
    </varray>
   </crystal>
   <varray name="positions" >
    <v>       0.30286415       0.49410690       0.00209390 </v>
    <v>       0.63619748       0.82744023       0.00209390 </v>
    <v>       0.96953081       0.16077357       0.00209390 </v>
    <v>       0.63619748       0.49410690       0.10624323 </v>
    <v>       0.96953081       0.82744023       0.10624323 </v>
    <v>       0.30286415       0.16077357       0.10624323 </v>
    <v>       0.30436494       0.50243151       0.30997356 </v>
    <v>       0.63681943       0.84005273       0.31749303 </v>
    <v>       0.96473535       0.17342380       0.31548117 </v>
    <v>       0.96933777       0.49372212       0.21060134 </v>
    <v>       0.31093723       0.83267669       0.21084078 </v>
    <v>       0.64329513       0.15810430       0.20779671 </v>
    <v>       0.87023928       0.06402692       0.41436356 </v>
    <v>       0.69504137       0.88888502       0.40691802 </v>
    <v>       0.08169565       0.88955776       0.42569840 </v>
   </varray>
  </structure>
  <varray name="forces" >
   <v>      -0.02777619       0.01901347      -0.01513396 </v>
   <v>      -0.03464394      -0.01104532      -0.20391537 </v>
   <v>       0.00583250      -0.01155633      -0.16915065 </v>
   <v>       0.08363917       0.11446460       0.08355649 </v>
   <v>       0.00185370      -0.09440683       0.21541235 </v>
   <v>      -0.04109277      -0.04090162       0.10306116 </v>
   <v>       0.00175454       0.00412970      -0.00286177 </v>
   <v>       0.00297526       0.00379119       0.01687393 </v>
   <v>      -0.00451091      -0.00154011      -0.00422774 </v>
   <v>       0.00379625       0.00214113      -0.00134039 </v>
   <v>       0.00082924       0.00284484      -0.00727861 </v>
   <v>       0.00206776       0.00360793      -0.00678993 </v>
   <v>       0.01953449      -0.02868921       0.00402308 </v>
   <v>      -0.00040869       0.00684962      -0.00264868 </v>
   <v>      -0.01385042       0.03129694      -0.00957990 </v>
  </varray>
  <varray name="stress" >
   <v>     -38.01055805      -1.62703955       0.73501086 </v>
   <v>      -1.62703960     -35.34773409       0.42862720 </v>
   <v>       0.73501083       0.42862718       1.43402971 </v>
  </varray>
  <energy>
   <i name="e_fr_energy">    -84.12455585 </i>
   <i name="e_wo_entrp">    -84.12446320 </i>
   <i name="e_0_energy">     -0.00037061 </i>
  </energy>
  <time name="totalsc">   77.35   77.41</time>
 </calculation>
 <calculation>
  <scstep>
   <time name="dav">    7.41    7.42</time>
   <time name="total">    7.93    7.93</time>
   <dipole>
    <v name="dipole">      0.00000000       0.00000000      -0.05118452 </v>
    <i name="Tr[quadrupol]">   -530.70390491 </i>
    <i name="Echarged">      0.00000000 </i>
    <i name="Edipol_quadrupol">      0.00000000 </i>
    <i name="Eion">      0.00000000 </i>
   </dipole>
   <energy>
    <i name="alphaZ">    520.83633453 </i>
    <i name="ewald">  30919.86391269 </i>
    <i name="hartreedc"> -41059.90030090 </i>
    <i name="XCdc">     91.79376006 </i>
    <i name="pawpsdc">   7643.25594902 </i>
    <i name="pawaedc">  -7336.07577098 </i>
    <i name="eentropy">     -0.00035808 </i>
    <i name="bandstr">   -488.84923986 </i>
    <i name="atom">   9624.95115657 </i>
    <i name="e_fr_energy">    -84.12455694 </i>
    <i name="e_wo_entrp">    -84.12419886 </i>
    <i name="e_0_energy">    -84.12446742 </i>
   </energy>
  </scstep>
  <scstep>
   <time name="dav">    7.56    7.57</time>
   <time name="total">    8.08    8.08</time>
   <dipole>
    <v name="dipole">      0.00000000       0.00000000      -0.05119785 </v>
    <i name="Tr[quadrupol]">   -530.70320936 </i>
    <i name="Echarged">      0.00000000 </i>
    <i name="Edipol_quadrupol">      0.00000000 </i>
    <i name="Eion">      0.00000000 </i>
   </dipole>
   <energy>
    <i name="e_fr_energy">    -84.12455780 </i>
    <i name="e_wo_entrp">    -84.12418873 </i>
    <i name="e_0_energy">    -84.12446554 </i>
   </energy>
  </scstep>
  <scstep>
   <time name="dav">    5.62    5.63</time>
   <time name="total">    6.14    6.14</time>
   <dipole>
    <v name="dipole">      0.00000000       0.00000000      -0.05100926 </v>
    <i name="Tr[quadrupol]">   -530.70392087 </i>
    <i name="Echarged">      0.00000000 </i>
    <i name="Edipol_quadrupol">      0.00000000 </i>
    <i name="Eion">      0.00000000 </i>
   </dipole>
   <energy>
    <i name="e_fr_energy">    -84.12455914 </i>
    <i name="e_wo_entrp">    -84.12419323 </i>
    <i name="e_0_energy">    -84.12446766 </i>
   </energy>
  </scstep>
  <scstep>
   <time name="dav">    5.60    5.61</time>
   <time name="total">    6.12    6.13</time>
   <dipole>
    <v name="dipole">      0.00000000       0.00000000      -0.05118248 </v>
    <i name="Tr[quadrupol]">   -530.70394743 </i>
    <i name="Echarged">      0.00000000 </i>
    <i name="Edipol_quadrupol">      0.00000000 </i>
    <i name="Eion">      0.00000000 </i>
   </dipole>
   <energy>
    <i name="e_fr_energy">    -84.12455752 </i>
    <i name="e_wo_entrp">    -84.12419842 </i>
    <i name="e_0_energy">    -84.12446775 </i>
   </energy>
  </scstep>
  <scstep>
   <time name="dav">    5.10    5.11</time>
   <time name="total">    5.62    5.62</time>
   <dipole>
    <v name="dipole">      0.00000000       0.00000000      -0.05115553 </v>
    <i name="Tr[quadrupol]">   -530.70371059 </i>
    <i name="Echarged">      0.00000000 </i>
    <i name="Edipol_quadrupol">      0.00000000 </i>
    <i name="Eion">      0.00000000 </i>
   </dipole>
   <energy>
    <i name="e_fr_energy">    -84.12455737 </i>
    <i name="e_wo_entrp">    -84.12419577 </i>
    <i name="e_0_energy">    -84.12446697 </i>
   </energy>
  </scstep>
  <scstep>
   <time name="dav">    4.92    4.93</time>
   <time name="total">    5.44    5.45</time>
   <dipole>
    <v name="dipole">      0.00000000       0.00000000      -0.05115273 </v>
    <i name="Tr[quadrupol]">   -530.70385456 </i>
    <i name="Echarged">      0.00000000 </i>
    <i name="Edipol_quadrupol">      0.00000000 </i>
    <i name="Eion">      0.00000000 </i>
   </dipole>
   <energy>
    <i name="e_fr_energy">    -84.12455736 </i>
    <i name="e_wo_entrp">    -84.12419248 </i>
    <i name="e_0_energy">    -84.12446614 </i>
   </energy>
  </scstep>
  <scstep>
   <time name="dav">    4.99    5.00</time>
   <time name="total">    5.51    5.51</time>
   <dipole>
    <v name="dipole">      0.00000000       0.00000000      -0.05113948 </v>
    <i name="Tr[quadrupol]">   -530.70397892 </i>
    <i name="Echarged">      0.00000000 </i>
    <i name="Edipol_quadrupol">      0.00000000 </i>
    <i name="Eion">      0.00000000 </i>
   </dipole>
   <energy>
    <i name="e_fr_energy">    -84.12455737 </i>
    <i name="e_wo_entrp">    -84.12419626 </i>
    <i name="e_0_energy">    -84.12446709 </i>
   </energy>
  </scstep>
  <scstep>
   <time name="dav">    4.89    4.89</time>
   <time name="total">    4.93    4.93</time>
   <dipole>
    <v name="dipole">      0.00000000       0.00000000      -0.05114596 </v>
    <i name="Tr[quadrupol]">   -530.70402539 </i>
    <i name="Echarged">      0.00000000 </i>
    <i name="Edipol_quadrupol">      0.00000000 </i>
    <i name="Eion">      0.00000000 </i>
   </dipole>
   <energy>
    <i name="alphaZ">    520.83766494 </i>
    <i name="ewald">  30919.86391269 </i>
    <i name="hartreedc"> -41059.89589589 </i>
    <i name="XCdc">     91.79395135 </i>
    <i name="pawpsdc">   7643.25669424 </i>
    <i name="pawaedc">  -7336.07647585 </i>
    <i name="eentropy">     -0.00036465 </i>
    <i name="bandstr">   -488.85520078 </i>
    <i name="atom">   9624.95115657 </i>
    <i name="e_fr_energy">    -84.12455737 </i>
    <i name="e_wo_entrp">    -84.12419272 </i>
    <i name="e_0_energy">    -84.12446621 </i>
   </energy>
  </scstep>
  <structure>
   <crystal>
    <varray name="basis" >
     <v>       4.88428255       0.00000000       0.00000000 </v>
     <v>       2.44214127       4.22991277       0.00000000 </v>
     <v>       0.00000000       0.00000000      22.10741862 </v>
    </varray>
    <i name="volume">    456.74123834 </i>
    <varray name="rec_basis" >
     <v>       0.20473836      -0.11820575       0.00000000 </v>
     <v>      -0.00000000       0.23641149       0.00000000 </v>
     <v>       0.00000000       0.00000000       0.04523368 </v>
    </varray>
   </crystal>
   <varray name="positions" >
    <v>       0.30286415       0.49410690       0.00209390 </v>
    <v>       0.63619748       0.82744023       0.00209390 </v>
    <v>       0.96953081       0.16077357       0.00209390 </v>
    <v>       0.63619748       0.49410690       0.10624323 </v>
    <v>       0.96953081       0.82744023       0.10624323 </v>
    <v>       0.30286415       0.16077357       0.10624323 </v>
    <v>       0.30436535       0.50242841       0.30997460 </v>
    <v>       0.63681550       0.84004791       0.31748730 </v>
    <v>       0.96473934       0.17342681       0.31548136 </v>
    <v>       0.96933401       0.49372167       0.21060140 </v>
    <v>       0.31093970       0.83267500       0.21084199 </v>
    <v>       0.64329531       0.15809971       0.20779789 </v>
    <v>       0.87026384       0.06401686       0.41436647 </v>
    <v>       0.69503980       0.88887643       0.40692041 </v>
    <v>       0.08167460       0.88956960       0.42569735 </v>
   </varray>
  </structure>
  <varray name="forces" >
   <v>      -0.02781882       0.01906117      -0.01497110 </v>
   <v>      -0.03463799      -0.01096968      -0.20409852 </v>
   <v>       0.00576666      -0.01150415      -0.16914909 </v>
   <v>       0.08341005       0.11448820       0.08378682 </v>
   <v>       0.00203845      -0.09440730       0.21571322 </v>
   <v>      -0.04118718      -0.04081701       0.10331788 </v>
   <v>       0.00171091       0.00430111      -0.00328671 </v>
   <v>       0.00385852       0.00441576       0.02008755 </v>
   <v>      -0.00514830      -0.00190313      -0.00402670 </v>
   <v>       0.00438437       0.00181906      -0.00215363 </v>
   <v>       0.00007689       0.00283595      -0.00845111 </v>
   <v>       0.00238412       0.00419282      -0.00778820 </v>
   <v>       0.01340886      -0.02395581       0.00217243 </v>
   <v>       0.00067316       0.00749720      -0.00382545 </v>
   <v>      -0.00891970       0.02494581      -0.00732738 </v>
  </varray>
  <varray name="stress" >
   <v>     -38.02017565      -1.64500443       0.73252244 </v>
   <v>      -1.64500438     -35.34436107       0.42213667 </v>
   <v>       0.73252248       0.42213667       1.39682580 </v>
  </varray>
  <energy>
   <i name="e_fr_energy">    -84.12455737 </i>
   <i name="e_wo_entrp">    -84.12446621 </i>
   <i name="e_0_energy">     -0.00036465 </i>
  </energy>
  <time name="totalsc">   54.54   54.58</time>
 </calculation>
 <calculation>
  <scstep>
   <time name="dav">    7.25    7.26</time>
   <time name="total">    7.83    7.84</time>
   <dipole>
    <v name="dipole">      0.00000000       0.00000000      -0.05114532 </v>
    <i name="Tr[quadrupol]">   -530.68486667 </i>
    <i name="Echarged">      0.00000000 </i>
    <i name="Edipol_quadrupol">      0.00000000 </i>
    <i name="Eion">      0.00000000 </i>
   </dipole>
   <energy>
    <i name="alphaZ">    520.83764002 </i>
    <i name="ewald">  30919.87096916 </i>
    <i name="hartreedc"> -41059.84925580 </i>
    <i name="XCdc">     91.79660851 </i>
    <i name="pawpsdc">   7643.25698798 </i>
    <i name="pawaedc">  -7336.07676291 </i>
    <i name="eentropy">     -0.00034533 </i>
    <i name="bandstr">   -488.91156982 </i>
    <i name="atom">   9624.95115657 </i>
    <i name="e_fr_energy">    -84.12457163 </i>
    <i name="e_wo_entrp">    -84.12422630 </i>
    <i name="e_0_energy">    -84.12448530 </i>
   </energy>
  </scstep>
  <scstep>
   <time name="dav">    9.43    9.44</time>
   <time name="total">    9.95    9.96</time>
   <dipole>
    <v name="dipole">      0.00000000       0.00000000      -0.05160975 </v>
    <i name="Tr[quadrupol]">   -530.69500237 </i>
    <i name="Echarged">      0.00000000 </i>
    <i name="Edipol_quadrupol">      0.00000000 </i>
    <i name="Eion">      0.00000000 </i>
   </dipole>
   <energy>
    <i name="e_fr_energy">    -84.12459750 </i>
    <i name="e_wo_entrp">    -84.12424149 </i>
    <i name="e_0_energy">    -84.12450850 </i>
   </energy>
  </scstep>
  <scstep>
   <time name="dav">    9.91    9.91</time>
   <time name="total">   10.43   10.43</time>
   <dipole>
    <v name="dipole">      0.00000000       0.00000000      -0.05083964 </v>
    <i name="Tr[quadrupol]">   -530.68672321 </i>
    <i name="Echarged">      0.00000000 </i>
    <i name="Edipol_quadrupol">      0.00000000 </i>
    <i name="Eion">      0.00000000 </i>
   </dipole>
   <energy>
    <i name="e_fr_energy">    -84.12460239 </i>
    <i name="e_wo_entrp">    -84.12424529 </i>
    <i name="e_0_energy">    -84.12451312 </i>
   </energy>
  </scstep>
  <scstep>
   <time name="dav">    7.92    7.93</time>
   <time name="total">    8.44    8.45</time>
   <dipole>
    <v name="dipole">      0.00000000       0.00000000      -0.05125600 </v>
    <i name="Tr[quadrupol]">   -530.69426811 </i>
    <i name="Echarged">      0.00000000 </i>
    <i name="Edipol_quadrupol">      0.00000000 </i>
    <i name="Eion">      0.00000000 </i>
   </dipole>
   <energy>
    <i name="e_fr_energy">    -84.12458824 </i>
    <i name="e_wo_entrp">    -84.12424591 </i>
    <i name="e_0_energy">    -84.12450266 </i>
   </energy>
  </scstep>
  <scstep>
   <time name="dav">    6.11    6.11</time>
   <time name="total">    6.62    6.63</time>
   <dipole>
    <v name="dipole">      0.00000000       0.00000000      -0.05133672 </v>
    <i name="Tr[quadrupol]">   -530.69608765 </i>
    <i name="Echarged">      0.00000000 </i>
    <i name="Edipol_quadrupol">      0.00000000 </i>
    <i name="Eion">      0.00000000 </i>
   </dipole>
   <energy>
    <i name="e_fr_energy">    -84.12458603 </i>
    <i name="e_wo_entrp">    -84.12423499 </i>
    <i name="e_0_energy">    -84.12449827 </i>
   </energy>
  </scstep>
  <scstep>
   <time name="dav">    6.83    6.83</time>
   <time name="total">    7.34    7.35</time>
   <dipole>
    <v name="dipole">      0.00000000       0.00000000      -0.05139051 </v>
    <i name="Tr[quadrupol]">   -530.69603957 </i>
    <i name="Echarged">      0.00000000 </i>
    <i name="Edipol_quadrupol">      0.00000000 </i>
    <i name="Eion">      0.00000000 </i>
   </dipole>
   <energy>
    <i name="e_fr_energy">    -84.12458609 </i>
    <i name="e_wo_entrp">    -84.12422068 </i>
    <i name="e_0_energy">    -84.12449474 </i>
   </energy>
  </scstep>
  <scstep>
   <time name="dav">    5.49    5.49</time>
   <time name="total">    6.01    6.01</time>
   <dipole>
    <v name="dipole">      0.00000000       0.00000000      -0.05134818 </v>
    <i name="Tr[quadrupol]">   -530.68728509 </i>
    <i name="Echarged">      0.00000000 </i>
    <i name="Edipol_quadrupol">      0.00000000 </i>
    <i name="Eion">      0.00000000 </i>
   </dipole>
   <energy>
    <i name="e_fr_energy">    -84.12458576 </i>
    <i name="e_wo_entrp">    -84.12425127 </i>
    <i name="e_0_energy">    -84.12450214 </i>
   </energy>
  </scstep>
  <scstep>
   <time name="dav">    5.06    5.07</time>
   <time name="total">    5.09    5.11</time>
   <dipole>
    <v name="dipole">      0.00000000       0.00000000      -0.05135826 </v>
    <i name="Tr[quadrupol]">   -530.68720614 </i>
    <i name="Echarged">      0.00000000 </i>
    <i name="Edipol_quadrupol">      0.00000000 </i>
    <i name="Eion">      0.00000000 </i>
   </dipole>
   <energy>
    <i name="alphaZ">    520.83029250 </i>
    <i name="ewald">  30919.87096916 </i>
    <i name="hartreedc"> -41059.93863842 </i>
    <i name="XCdc">     91.79850770 </i>
    <i name="pawpsdc">   7643.43836041 </i>
    <i name="pawaedc">  -7336.25952092 </i>
    <i name="eentropy">     -0.00035673 </i>
    <i name="bandstr">   -488.81535593 </i>
    <i name="atom">   9624.95115657 </i>
    <i name="e_fr_energy">    -84.12458567 </i>
    <i name="e_wo_entrp">    -84.12422894 </i>
    <i name="e_0_energy">    -84.12449649 </i>
   </energy>
  </scstep>
  <structure>
   <crystal>
    <varray name="basis" >
     <v>       4.88428255       0.00000000       0.00000000 </v>
     <v>       2.44214127       4.22991277       0.00000000 </v>
     <v>       0.00000000       0.00000000      22.10741862 </v>
    </varray>
    <i name="volume">    456.74123834 </i>
    <varray name="rec_basis" >
     <v>       0.20473836      -0.11820575       0.00000000 </v>
     <v>      -0.00000000       0.23641149       0.00000000 </v>
     <v>       0.00000000       0.00000000       0.04523368 </v>
    </varray>
   </crystal>
   <varray name="positions" >
    <v>       0.30286415       0.49410690       0.00209390 </v>
[...]
       <r>   -5.2486    1.0000 </r>
       <r>   -5.2089    1.0000 </r>
       <r>   -4.9349    1.0000 </r>
       <r>   -4.8614    1.0000 </r>
       <r>   -4.7090    1.0000 </r>
       <r>   -4.6523    1.0000 </r>
       <r>   -4.6036    1.0000 </r>
       <r>   -4.2837    1.0000 </r>
       <r>   -4.2226    1.0000 </r>
       <r>   -4.0946    1.0000 </r>
       <r>   -4.0344    1.0000 </r>
       <r>   -3.9245    1.0000 </r>
       <r>   -3.6339    1.0000 </r>
       <r>   -3.5834    1.0000 </r>
       <r>   -3.5080    1.0000 </r>
       <r>   -3.3938    1.0000 </r>
       <r>   -3.2970    1.0000 </r>
       <r>   -3.1714    1.0000 </r>
       <r>   -3.1115    1.0000 </r>
       <r>   -3.0825    1.0000 </r>
       <r>   -3.0562    1.0000 </r>
       <r>   -3.0305    1.0000 </r>
       <r>   -2.9717    1.0000 </r>
       <r>   -2.8534    1.0000 </r>
       <r>   -2.6621    1.0000 </r>
       <r>   -2.5222    1.0000 </r>
       <r>   -2.4523    1.0000 </r>
       <r>   -2.3405    1.0000 </r>
       <r>   -2.1378    1.0000 </r>
       <r>   -1.9571    1.0000 </r>
       <r>   -1.9401    1.0000 </r>
       <r>   -1.8457    1.0000 </r>
       <r>   -1.7857    1.0000 </r>
       <r>   -1.6178    1.0000 </r>
       <r>   -1.4865    1.0000 </r>
       <r>   -1.4274    1.0000 </r>
       <r>   -1.2734    1.0000 </r>
       <r>   -0.9855    1.0000 </r>
       <r>   -0.9270    1.0000 </r>
       <r>   -0.8754    1.0000 </r>
       <r>   -0.7988    1.0000 </r>
       <r>   -0.7160    1.0000 </r>
       <r>   -0.6169    1.0000 </r>
       <r>   -0.5609    0.9999 </r>
       <r>   -0.4432    0.9985 </r>
       <r>   -0.4119    0.9975 </r>
       <r>   -0.3474    0.9953 </r>
       <r>   -0.3110    0.9953 </r>
       <r>   -0.2896    0.9966 </r>
       <r>   -0.1042    1.0504 </r>
       <r>   -0.0789    1.0371 </r>
       <r>   -0.0119    0.9015 </r>
       <r>    0.0120    0.8123 </r>
       <r>    0.1219    0.2663 </r>
       <r>    0.1846    0.0382 </r>
       <r>    0.2929   -0.0471 </r>
       <r>    0.4573    0.0045 </r>
       <r>    0.4948    0.0048 </r>
       <r>    0.9930    0.0000 </r>
       <r>    1.2066    0.0000 </r>
       <r>    1.4356    0.0000 </r>
       <r>    2.2745    0.0000 </r>
       <r>    2.7711    0.0000 </r>
       <r>    3.3406    0.0000 </r>
       <r>    3.7058    0.0000 </r>
       <r>    4.5223    0.0000 </r>
      </set>
     </set>
    </set>
   </array>
  </eigenvalues>
  <separator name="orbital magnetization" >
   <v name="MAGDIPOLOUT">      0.00000000      0.00000000      0.00000000</v>
  </separator>
  <dos>
   <i name="efermi">      0.07584800 </i>
   <total>
    <array>
     <dimension dim="1">gridpoints</dimension>
     <dimension dim="2">spin</dimension>
     <field>energy</field>
     <field>total</field>
     <field>integrated</field>
     <set>
      <set comment="spin 1">
       <r>   -24.8514     0.0000     0.0000 </r>
       <r>   -24.7439     0.0000     0.0000 </r>
       <r>   -24.6365     0.0000     0.0000 </r>
       <r>   -24.5290     0.0000     0.0000 </r>
       <r>   -24.4215     0.0000     0.0000 </r>
       <r>   -24.3140     0.0000     0.0000 </r>
       <r>   -24.2065     0.0000     0.0000 </r>
       <r>   -24.0990     0.0000     0.0000 </r>
       <r>   -23.9915     0.0000     0.0000 </r>
       <r>   -23.8840     0.0000     0.0000 </r>
       <r>   -23.7765     0.0000     0.0000 </r>
       <r>   -23.6690     0.0000     0.0000 </r>
       <r>   -23.5616     0.0002     0.0000 </r>
       <r>   -23.4541     0.0040     0.0005 </r>
       <r>   -23.3466     0.0319     0.0039 </r>
       <r>   -23.2391     0.0547     0.0098 </r>
       <r>   -23.1316    -0.3693    -0.0299 </r>
       <r>   -23.0241    -0.6623    -0.1011 </r>
       <r>   -22.9166     3.6469     0.2909 </r>
       <r>   -22.8091     9.7626     1.3403 </r>
       <r>   -22.7016     6.5304     2.0422 </r>
       <r>   -22.5941     0.2411     2.0681 </r>
       <r>   -22.4867    -0.6764     1.9954 </r>
       <r>   -22.3792    -0.0205     1.9932 </r>
       <r>   -22.2717     0.0524     1.9988 </r>
       <r>   -22.1642     0.0100     1.9999 </r>
       <r>   -22.0567     0.0007     2.0000 </r>
       <r>   -21.9492     0.0000     2.0000 </r>
       <r>   -21.8417     0.0000     2.0000 </r>
       <r>   -21.7342     0.0000     2.0000 </r>
       <r>   -21.6267     0.0000     2.0000 </r>
       <r>   -21.5192     0.0000     2.0000 </r>
       <r>   -21.4118     0.0000     2.0000 </r>
       <r>   -21.3043     0.0000     2.0000 </r>
       <r>   -21.1968     0.0000     2.0000 </r>
       <r>   -21.0893     0.0000     2.0000 </r>
       <r>   -20.9818     0.0000     2.0000 </r>
       <r>   -20.8743     0.0000     2.0000 </r>
       <r>   -20.7668     0.0000     2.0000 </r>
       <r>   -20.6593     0.0000     2.0000 </r>
       <r>   -20.5518     0.0000     2.0000 </r>
       <r>   -20.4443     0.0000     2.0000 </r>
       <r>   -20.3369     0.0000     2.0000 </r>
       <r>   -20.2294     0.0000     2.0000 </r>
       <r>   -20.1219     0.0000     2.0000 </r>
       <r>   -20.0144     0.0000     2.0000 </r>
       <r>   -19.9069     0.0000     2.0000 </r>
       <r>   -19.7994     0.0000     2.0000 </r>
       <r>   -19.6919     0.0000     2.0000 </r>
       <r>   -19.5844     0.0000     2.0000 </r>
       <r>   -19.4769     0.0000     2.0000 </r>
       <r>   -19.3694     0.0000     2.0000 </r>
       <r>   -19.2620     0.0000     2.0000 </r>
       <r>   -19.1545     0.0000     2.0000 </r>
       <r>   -19.0470     0.0000     2.0000 </r>
       <r>   -18.9395     0.0000     2.0000 </r>
       <r>   -18.8320     0.0000     2.0000 </r>
       <r>   -18.7245     0.0000     2.0000 </r>
       <r>   -18.6170     0.0000     2.0000 </r>
       <r>   -18.5095     0.0000     2.0000 </r>
       <r>   -18.4020     0.0000     2.0000 </r>
       <r>   -18.2945     0.0000     2.0000 </r>
       <r>   -18.1871     0.0000     2.0000 </r>
       <r>   -18.0796     0.0000     2.0000 </r>
       <r>   -17.9721     0.0000     2.0000 </r>
       <r>   -17.8646     0.0000     2.0000 </r>
       <r>   -17.7571     0.0000     2.0000 </r>
       <r>   -17.6496     0.0005     2.0001 </r>
       <r>   -17.5421     0.0079     2.0009 </r>
       <r>   -17.4346     0.0447     2.0057 </r>
       <r>   -17.3271     0.0060     2.0064 </r>
       <r>   -17.2196    -0.5619     1.9460 </r>
       <r>   -17.1122    -0.0814     1.9372 </r>
       <r>   -17.0047     5.4739     2.5256 </r>
       <r>   -16.8972     9.7594     3.5746 </r>
       <r>   -16.7897     4.7021     4.0801 </r>
       <r>   -16.6822    -0.3361     4.0440 </r>
       <r>   -16.5747    -0.4826     3.9921 </r>
       <r>   -16.4672     0.0278     3.9951 </r>
       <r>   -16.3597     0.0394     3.9993 </r>
       <r>   -16.2522     0.0061     4.0000 </r>
       <r>   -16.1448     0.0004     4.0000 </r>
       <r>   -16.0373     0.0000     4.0000 </r>
       <r>   -15.9298     0.0000     4.0000 </r>
       <r>   -15.8223     0.0000     4.0000 </r>
       <r>   -15.7148     0.0000     4.0000 </r>
       <r>   -15.6073     0.0000     4.0000 </r>
       <r>   -15.4998     0.0000     4.0000 </r>
       <r>   -15.3923     0.0000     4.0000 </r>
       <r>   -15.2848     0.0000     4.0000 </r>
       <r>   -15.1773     0.0000     4.0000 </r>
       <r>   -15.0699     0.0000     4.0000 </r>
       <r>   -14.9624     0.0000     4.0000 </r>
       <r>   -14.8549     0.0000     4.0000 </r>
       <r>   -14.7474     0.0000     4.0000 </r>
       <r>   -14.6399     0.0000     4.0000 </r>
       <r>   -14.5324     0.0000     4.0000 </r>
       <r>   -14.4249     0.0000     4.0000 </r>
       <r>   -14.3174     0.0000     4.0000 </r>
       <r>   -14.2099     0.0000     4.0000 </r>
       <r>   -14.1024     0.0000     4.0000 </r>
       <r>   -13.9950     0.0000     4.0000 </r>
       <r>   -13.8875     0.0000     4.0000 </r>
       <r>   -13.7800     0.0000     4.0000 </r>
       <r>   -13.6725     0.0000     4.0000 </r>
       <r>   -13.5650     0.0000     4.0000 </r>
       <r>   -13.4575     0.0000     4.0000 </r>
       <r>   -13.3500     0.0000     4.0000 </r>
       <r>   -13.2425     0.0000     4.0000 </r>
       <r>   -13.1350     0.0000     4.0000 </r>
       <r>   -13.0275     0.0000     4.0000 </r>
       <r>   -12.9201     0.0000     4.0000 </r>
       <r>   -12.8126     0.0000     4.0000 </r>
       <r>   -12.7051     0.0000     4.0000 </r>
       <r>   -12.5976     0.0000     4.0000 </r>
       <r>   -12.4901     0.0000     4.0000 </r>
       <r>   -12.3826     0.0000     4.0000 </r>
       <r>   -12.2751     0.0000     4.0000 </r>
       <r>   -12.1676     0.0000     4.0000 </r>
       <r>   -12.0601     0.0000     4.0000 </r>
       <r>   -11.9526     0.0000     4.0000 </r>
       <r>   -11.8452     0.0000     4.0000 </r>
       <r>   -11.7377     0.0000     4.0000 </r>
       <r>   -11.6302     0.0000     4.0000 </r>
       <r>   -11.5227     0.0000     4.0000 </r>
       <r>   -11.4152     0.0000     4.0000 </r>
       <r>   -11.3077     0.0000     4.0000 </r>
       <r>   -11.2002     0.0000     4.0000 </r>
       <r>   -11.0927     0.0000     4.0000 </r>
       <r>   -10.9852     0.0000     4.0000 </r>
       <r>   -10.8777     0.0000     4.0000 </r>
       <r>   -10.7703     0.0000     4.0000 </r>
       <r>   -10.6628     0.0000     4.0000 </r>
       <r>   -10.5553     0.0000     4.0000 </r>
       <r>   -10.4478     0.0000     4.0000 </r>
       <r>   -10.3403     0.0000     4.0000 </r>
       <r>   -10.2328     0.0000     4.0000 </r>
       <r>   -10.1253     0.0000     4.0000 </r>
       <r>   -10.0178     0.0000     4.0000 </r>
       <r>    -9.9103     0.0000     4.0000 </r>
       <r>    -9.8028     0.0000     4.0000 </r>
       <r>    -9.6954     0.0000     4.0000 </r>
       <r>    -9.5879     0.0005     4.0001 </r>
       <r>    -9.4804     0.0026     4.0003 </r>
       <r>    -9.3729    -0.0002     4.0003 </r>
       <r>    -9.2654    -0.0274     3.9974 </r>
       <r>    -9.1579     0.0078     3.9982 </r>
       <r>    -9.0504     0.2736     4.0276 </r>
       <r>    -8.9429     0.5408     4.0857 </r>
       <r>    -8.8354     0.6902     4.1599 </r>
       <r>    -8.7279     0.7512     4.2407 </r>
       <r>    -8.6205     0.3452     4.2778 </r>
       <r>    -8.5130     1.3635     4.4243 </r>
       <r>    -8.4055     6.0180     5.0712 </r>
       <r>    -8.2980     9.1239     6.0519 </r>
       <r>    -8.1905     5.4700     6.6399 </r>
       <r>    -8.0830     1.0041     6.7478 </r>
       <r>    -7.9755     0.2785     6.7778 </r>
       <r>    -7.8680     0.9584     6.8808 </r>
       <r>    -7.7605     1.4031     7.0316 </r>
       <r>    -7.6530     1.8844     7.2342 </r>
       <r>    -7.5456     2.1758     7.4680 </r>
       <r>    -7.4381     2.0210     7.6853 </r>
       <r>    -7.3306     2.8336     7.9899 </r>
       <r>    -7.2231     4.6784     8.4927 </r>
       <r>    -7.1156     5.2768     9.0599 </r>
       <r>    -7.0081     4.1258     9.5034 </r>
       <r>    -6.9006     3.5630     9.8864 </r>
       <r>    -6.7931     3.6330    10.2769 </r>
       <r>    -6.6856     3.1377    10.6142 </r>
       <r>    -6.5781     3.3294    10.9721 </r>
       <r>    -6.4707     5.2103    11.5321 </r>
       <r>    -6.3632     7.3069    12.3176 </r>
       <r>    -6.2557     8.0856    13.1867 </r>
       <r>    -6.1482     9.7269    14.2322 </r>
       <r>    -6.0407    12.6712    15.5942 </r>
       <r>    -5.9332    14.3683    17.1387 </r>
       <r>    -5.8257    14.6433    18.7127 </r>
       <r>    -5.7182    12.8747    20.0966 </r>
       <r>    -5.6107    12.8128    21.4738 </r>
       <r>    -5.5032    16.4407    23.2410 </r>
       <r>    -5.3958    19.4565    25.3324 </r>
       <r>    -5.2883    19.0282    27.3778 </r>
       <r>    -5.1808    17.4405    29.2524 </r>
       <r>    -5.0733    17.5004    31.1336 </r>
       <r>    -4.9658    16.0388    32.8576 </r>
       <r>    -4.8583    13.0848    34.2640 </r>
       <r>    -4.7508    10.8561    35.4310 </r>
       <r>    -4.6433    10.8995    36.6026 </r>
       <r>    -4.5358    14.7304    38.1859 </r>
       <r>    -4.4283    17.5219    40.0694 </r>
       <r>    -4.3209    16.2551    41.8166 </r>
       <r>    -4.2134    15.2880    43.4599 </r>
       <r>    -4.1059    16.9939    45.2866 </r>
       <r>    -3.9984    16.7061    47.0823 </r>
       <r>    -3.8909    14.1653    48.6050 </r>
       <r>    -3.7834    14.8753    50.2039 </r>
       <r>    -3.6759    18.5465    52.1975 </r>
       <r>    -3.5684    21.3967    54.4974 </r>
       <r>    -3.4609    22.9354    56.9627 </r>
       <r>    -3.3534    23.9626    59.5385 </r>
       <r>    -3.2460    25.6794    62.2987 </r>
       <r>    -3.1385    28.0176    65.3104 </r>
       <r>    -3.0310    27.6127    68.2784 </r>
       <r>    -2.9235    25.4885    71.0182 </r>
       <r>    -2.8160    25.7457    73.7856 </r>
       <r>    -2.7085    26.0476    76.5854 </r>
       <r>    -2.6010    23.7527    79.1386 </r>
       <r>    -2.4935    22.0695    81.5109 </r>
       <r>    -2.3860    20.5666    83.7216 </r>
       <r>    -2.2785    16.7693    85.5241 </r>
       <r>    -2.1711    15.5011    87.1903 </r>
       <r>    -2.0636    18.3249    89.1601 </r>
       <r>    -1.9561    20.6718    91.3821 </r>
       <r>    -1.8486    21.0321    93.6428 </r>
       <r>    -1.7411    20.2287    95.8172 </r>
       <r>    -1.6336    19.3332    97.8953 </r>
       <r>    -1.5261    18.4730    99.8810 </r>
       <r>    -1.4186    17.4563   101.7574 </r>
       <r>    -1.3111    17.2715   103.6139 </r>
       <r>    -1.2036    18.7677   105.6312 </r>
       <r>    -1.0962    20.5661   107.8419 </r>
       <r>    -0.9887    22.0954   110.2169 </r>
       <r>    -0.8812    22.3729   112.6218 </r>
       <r>    -0.7737    20.3738   114.8117 </r>
       <r>    -0.6662    17.2028   116.6609 </r>
       <r>    -0.5587    16.8902   118.4764 </r>
       <r>    -0.4512    19.0598   120.5251 </r>
       <r>    -0.3437    18.8897   122.5556 </r>
       <r>    -0.2362    18.9931   124.5972 </r>
       <r>    -0.1287    23.7217   127.1470 </r>
       <r>    -0.0213    28.9502   130.2589 </r>
       <r>     0.0862    27.9939   133.2679 </r>
       <r>     0.1937    22.8463   135.7237 </r>
       <r>     0.3012    18.6344   137.7267 </r>
       <r>     0.4087    13.8425   139.2146 </r>
       <r>     0.5162     8.3257   140.1096 </r>
       <r>     0.6237     6.0870   140.7638 </r>
       <r>     0.7312     5.9119   141.3993 </r>
       <r>     0.8387     5.0496   141.9421 </r>
       <r>     0.9462     5.3641   142.5187 </r>
       <r>     1.0536     5.3567   143.0945 </r>
       <r>     1.1611     3.3186   143.4512 </r>
       <r>     1.2686     2.4593   143.7155 </r>
       <r>     1.3761     3.7096   144.1143 </r>
       <r>     1.4836     4.7777   144.6278 </r>
       <r>     1.5911     4.2689   145.0867 </r>
       <r>     1.6986     3.1973   145.4304 </r>
       <r>     1.8061     3.1354   145.7674 </r>
       <r>     1.9136     3.8143   146.1774 </r>
       <r>     2.0211     4.3585   146.6459 </r>
       <r>     2.1285     4.8398   147.1661 </r>
       <r>     2.2360     4.6308   147.6639 </r>
       <r>     2.3435     3.7498   148.0670 </r>
       <r>     2.4510     3.4037   148.4328 </r>
       <r>     2.5585     4.2257   148.8871 </r>
       <r>     2.6660     5.1604   149.4417 </r>
       <r>     2.7735     5.6583   150.0499 </r>
       <r>     2.8810     5.7866   150.6720 </r>
       <r>     2.9885     5.0669   151.2166 </r>
       <r>     3.0960     4.6439   151.7158 </r>
       <r>     3.2034     5.7679   152.3358 </r>
       <r>     3.3109     6.8194   153.0688 </r>
       <r>     3.4184     5.8202   153.6944 </r>
       <r>     3.5259     3.7448   154.0969 </r>
       <r>     3.6334     2.0589   154.3182 </r>
       <r>     3.7409     2.4709   154.5838 </r>
       <r>     3.8484     4.4521   155.0624 </r>
       <r>     3.9559     5.4554   155.6488 </r>
       <r>     4.0634     5.0957   156.1965 </r>
       <r>     4.1709     4.3068   156.6594 </r>
       <r>     4.2783     3.7291   157.0603 </r>
       <r>     4.3858     3.1655   157.4005 </r>
       <r>     4.4933     2.7034   157.6911 </r>
       <r>     4.6008     3.3730   158.0537 </r>
       <r>     4.7083     3.9544   158.4788 </r>
       <r>     4.8158     3.4983   158.8548 </r>
       <r>     4.9233     2.8537   159.1615 </r>
       <r>     5.0308     2.1004   159.3873 </r>
       <r>     5.1383     1.5696   159.5560 </r>
       <r>     5.2458     1.9047   159.7608 </r>
       <r>     5.3532     1.7230   159.9460 </r>
       <r>     5.4607     0.5939   160.0098 </r>
       <r>     5.5682    -0.0484   160.0046 </r>
       <r>     5.6757    -0.0536   159.9989 </r>
       <r>     5.7832     0.0037   159.9993 </r>
       <r>     5.8907     0.0057   159.9999 </r>
       <r>     5.9982     0.0012   160.0000 </r>
       <r>     6.1057     0.0001   160.0000 </r>
       <r>     6.2132     0.0000   160.0000 </r>
       <r>     6.3207     0.0000   160.0000 </r>
       <r>     6.4281     0.0000   160.0000 </r>
       <r>     6.5356     0.0000   160.0000 </r>
       <r>     6.6431     0.0000   160.0000 </r>
       <r>     6.7506     0.0000   160.0000 </r>
       <r>     6.8581     0.0000   160.0000 </r>
       <r>     6.9656     0.0000   160.0000 </r>
       <r>     7.0731     0.0000   160.0000 </r>
       <r>     7.1806     0.0000   160.0000 </r>
       <r>     7.2881     0.0000   160.0000 </r>
       <r>     7.3956     0.0000   160.0000 </r>
      </set>
     </set>
    </array>
   </total>
  </dos>
 </calculation>
 <structure name="finalpos" >
  <crystal>
   <varray name="basis" >
    <v>       4.88428255       0.00000000       0.00000000 </v>
    <v>       2.44214127       4.22991277       0.00000000 </v>
    <v>       0.00000000       0.00000000      22.10741862 </v>
   </varray>
   <i name="volume">    456.74123834 </i>
   <varray name="rec_basis" >
    <v>       0.20473836      -0.11820575       0.00000000 </v>
    <v>      -0.00000000       0.23641149       0.00000000 </v>
    <v>       0.00000000       0.00000000       0.04523368 </v>
   </varray>
  </crystal>
  <varray name="positions" >
   <v>       0.30286415       0.49410690       0.00209390 </v>
   <v>       0.63619748       0.82744023       0.00209390 </v>
   <v>       0.96953081       0.16077357       0.00209390 </v>
   <v>       0.63619748       0.49410690       0.10624323 </v>
   <v>       0.96953081       0.82744023       0.10624323 </v>
   <v>       0.30286415       0.16077357       0.10624323 </v>
   <v>       0.30436059       0.50246047       0.30996800 </v>
   <v>       0.63683412       0.84008616       0.31752564 </v>
   <v>       0.96470840       0.17340726       0.31547680 </v>
   <v>       0.96936100       0.49373241       0.21059910 </v>
   <v>       0.31092475       0.83269497       0.21082978 </v>
   <v>       0.64329457       0.15813607       0.20778646 </v>
   <v>       0.87030377       0.06392765       0.41435909 </v>
   <v>       0.69502879       0.88894271       0.40690886 </v>
   <v>       0.08164050       0.88965802       0.42569363 </v>
  </varray>
  <varray name="selective"  type="logical" >
   <v type="logical" >  F  F  F </v>
   <v type="logical" >  F  F  F </v>
   <v type="logical" >  F  F  F </v>
   <v type="logical" >  F  F  F </v>
   <v type="logical" >  F  F  F </v>
   <v type="logical" >  F  F  F </v>
   <v type="logical" >  T  T  T </v>
   <v type="logical" >  T  T  T </v>
   <v type="logical" >  T  T  T </v>
   <v type="logical" >  T  T  T </v>
   <v type="logical" >  T  T  T </v>
   <v type="logical" >  T  T  T </v>
   <v type="logical" >  T  T  T </v>
   <v type="logical" >  T  T  T </v>
   <v type="logical" >  T  T  T </v>
  </varray>
  <nose>
   <v>      -3.00000000       0.00000000       0.00010000       0.00010000 </v>
  </nose>
 </structure>
</modeling>
