<?xml version="1.0" encoding="ISO-8859-1"?>
<modeling>
 <generator>
  <i name="program" type="string">vasp </i>
  <i name="version" type="string">5.4.4.18Apr17-6-g9f103f2a35  </i>
  <i name="subversion" type="string">(build Apr 23 2019 15:17:44) complex            parallel </i>
  <i name="platform" type="string">MareNostrum4 </i>
  <i name="date" type="string">2019 05 10 </i>
  <i name="time" type="string">04:00:12 </i>
 </generator>
 <incar>
  <i type="int" name="ISTART">     0</i>
  <i type="string" name="PREC">normal</i>
  <i type="string" name="ALGO"> NORMAL</i>
  <i type="int" name="ICHARG">     2</i>
  <i type="int" name="INIWAV">     1</i>
  <i type="int" name="NELMIN">     8</i>
  <i type="int" name="IBRION">     2</i>
  <i name="EDIFF">      0.00000100</i>
  <i name="EDIFFG">     -0.01000000</i>
  <i type="int" name="NSW">  1500</i>
  <i name="ENCUT">    450.00000000</i>
  <i name="POTIM">      0.20000000</i>
  <i type="int" name="ISMEAR">     2</i>
  <i name="SIGMA">      0.20000000</i>
  <i type="logical" name="LWAVE"> F  </i>
  <i type="logical" name="LCHARG"> T  </i>
  <v type="int" name="KPOINT_BSE">    -1     0     0     0</v>
  <i type="string" name="GGA"> 91</i>
  <i type="logical" name="LDIPOL"> T  </i>
  <i type="int" name="IDIPOL">     3</i>
 </incar>
 <structure name="primitive_cell" >
  <crystal>
   <varray name="basis" >
    <v>       4.88428255       0.00000000       0.00000000 </v>
    <v>       2.44214127       4.22991277       0.00000000 </v>
    <v>       0.00000000       0.00000000      22.10741862 </v>
   </varray>
   <i name="volume">    456.74123834 </i>
   <varray name="rec_basis" >
    <v>       0.20473836      -0.11820575       0.00000000 </v>
    <v>      -0.00000000       0.23641149       0.00000000 </v>
    <v>       0.00000000       0.00000000       0.04523368 </v>
   </varray>
  </crystal>
  <varray name="positions" >
   <v>       0.30286415       0.49410690       0.00209390 </v>
   <v>      -0.36380252       0.49410690       0.10624323 </v>
   <v>      -0.03046919      -0.17255977       0.10624323 </v>
   <v>      -0.36380252      -0.17255977       0.00209390 </v>
   <v>      -0.03046919       0.16077357       0.00209390 </v>
   <v>       0.30286415       0.16077357       0.10624323 </v>
   <v>      -0.03046919       0.49410690       0.21495914 </v>
   <v>       0.30286415      -0.17255977       0.21495914 </v>
   <v>      -0.36380252       0.16077357       0.21495914 </v>
   <v>       0.30286415       0.49410690       0.32250707 </v>
   <v>      -0.36380252      -0.17255977       0.32250707 </v>
   <v>      -0.03046919       0.16077357       0.32250707 </v>
   <v>      -0.36147278      -0.18720688       0.40965579 </v>
   <v>      -0.00774698      -0.16987484       0.44138925 </v>
   <v>      -0.23128870      -0.00740884       0.43532491 </v>
  </varray>
 </structure>
 <varray name="primitive_index" >
  <v type="int" >        1 </v>
  <v type="int" >        4 </v>
  <v type="int" >        5 </v>
  <v type="int" >        2 </v>
  <v type="int" >        3 </v>
  <v type="int" >        6 </v>
  <v type="int" >       10 </v>
  <v type="int" >       11 </v>
  <v type="int" >       12 </v>
  <v type="int" >        7 </v>
  <v type="int" >        8 </v>
  <v type="int" >        9 </v>
  <v type="int" >       14 </v>
  <v type="int" >       15 </v>
  <v type="int" >       13 </v>
 </varray>
 <kpoints>
  <generation param="Monkhorst-Pack">
   <v type="int" name="divisions">       8        8        1 </v>
   <v name="usershift">      0.00000000       0.00000000       0.00000000 </v>
   <v name="genvec1">      0.12500000      -0.00000000       0.00000000 </v>
   <v name="genvec2">      0.00000000       0.12500000       0.00000000 </v>
   <v name="genvec3">      0.00000000       0.00000000       1.00000000 </v>
   <v name="shift">      0.50000000       0.50000000       0.00000000 </v>
  </generation>
  <varray name="kpointlist" >
   <v>       0.06250000       0.06250000       0.00000000 </v>
   <v>       0.00000000       0.06250000       0.00000000 </v>
   <v>      -0.06250000       0.00000000       0.00000000 </v>
   <v>       0.18750000       0.06250000       0.00000000 </v>
   <v>       0.12500000       0.18750000       0.00000000 </v>
   <v>      -0.06250000       0.12500000       0.00000000 </v>
   <v>       0.12500000      -0.06250000       0.00000000 </v>
   <v>      -0.06250000      -0.18750000       0.00000000 </v>
   <v>      -0.18750000      -0.12500000       0.00000000 </v>
   <v>       0.31250000       0.06250000       0.00000000 </v>
   <v>       0.25000000       0.31250000       0.00000000 </v>
   <v>      -0.06250000       0.25000000       0.00000000 </v>
   <v>       0.25000000      -0.06250000       0.00000000 </v>
   <v>      -0.06250000      -0.31250000       0.00000000 </v>
   <v>      -0.31250000      -0.25000000       0.00000000 </v>
   <v>       0.43750000       0.06250000       0.00000000 </v>
   <v>       0.37500000       0.43750000       0.00000000 </v>
   <v>      -0.06250000       0.37500000       0.00000000 </v>
   <v>       0.37500000      -0.06250000       0.00000000 </v>
   <v>      -0.06250000      -0.43750000       0.00000000 </v>
   <v>      -0.43750000      -0.37500000       0.00000000 </v>
   <v>      -0.43750000       0.06250000       0.00000000 </v>
   <v>       0.50000000      -0.43750000       0.00000000 </v>
   <v>      -0.06250000       0.50000000       0.00000000 </v>
   <v>       0.50000000      -0.06250000       0.00000000 </v>
   <v>      -0.06250000       0.43750000       0.00000000 </v>
   <v>       0.43750000       0.50000000       0.00000000 </v>
   <v>      -0.31250000       0.06250000       0.00000000 </v>
   <v>      -0.37500000      -0.31250000       0.00000000 </v>
   <v>      -0.06250000      -0.37500000       0.00000000 </v>
   <v>      -0.37500000      -0.06250000       0.00000000 </v>
   <v>      -0.06250000       0.31250000       0.00000000 </v>
   <v>       0.31250000       0.37500000       0.00000000 </v>
   <v>      -0.18750000       0.06250000       0.00000000 </v>
   <v>      -0.25000000      -0.18750000       0.00000000 </v>
   <v>      -0.06250000      -0.25000000       0.00000000 </v>
   <v>      -0.25000000      -0.06250000       0.00000000 </v>
   <v>      -0.06250000       0.18750000       0.00000000 </v>
   <v>       0.18750000       0.25000000       0.00000000 </v>
   <v>      -0.06250000       0.06250000       0.00000000 </v>
   <v>      -0.12500000      -0.06250000       0.00000000 </v>
   <v>      -0.06250000      -0.12500000       0.00000000 </v>
   <v>       0.18750000       0.18750000       0.00000000 </v>
   <v>      -0.00000000       0.18750000       0.00000000 </v>
   <v>      -0.18750000       0.00000000       0.00000000 </v>
   <v>       0.31250000       0.18750000       0.00000000 </v>
   <v>       0.12500000       0.31250000       0.00000000 </v>
   <v>      -0.18750000       0.12500000       0.00000000 </v>
   <v>       0.12500000      -0.18750000       0.00000000 </v>
   <v>      -0.18750000      -0.31250000       0.00000000 </v>
   <v>      -0.31250000      -0.12500000       0.00000000 </v>
   <v>       0.43750000       0.18750000       0.00000000 </v>
   <v>       0.25000000       0.43750000       0.00000000 </v>
   <v>      -0.18750000       0.25000000       0.00000000 </v>
   <v>       0.25000000      -0.18750000       0.00000000 </v>
   <v>      -0.18750000      -0.43750000       0.00000000 </v>
   <v>      -0.43750000      -0.25000000       0.00000000 </v>
   <v>      -0.43750000       0.18750000       0.00000000 </v>
   <v>       0.37500000      -0.43750000       0.00000000 </v>
   <v>      -0.18750000       0.37500000       0.00000000 </v>
   <v>       0.37500000      -0.18750000       0.00000000 </v>
   <v>      -0.18750000       0.43750000       0.00000000 </v>
   <v>       0.43750000      -0.37500000       0.00000000 </v>
   <v>      -0.31250000       0.18750000       0.00000000 </v>
   <v>       0.50000000      -0.31250000       0.00000000 </v>
   <v>      -0.18750000       0.50000000       0.00000000 </v>
   <v>       0.50000000      -0.18750000       0.00000000 </v>
   <v>      -0.18750000       0.31250000       0.00000000 </v>
   <v>       0.31250000       0.50000000       0.00000000 </v>
   <v>      -0.18750000       0.18750000       0.00000000 </v>
   <v>      -0.37500000      -0.18750000       0.00000000 </v>
   <v>      -0.18750000      -0.37500000       0.00000000 </v>
   <v>       0.31250000       0.31250000       0.00000000 </v>
   <v>      -0.00000000       0.31250000       0.00000000 </v>
   <v>      -0.31250000       0.00000000       0.00000000 </v>
   <v>       0.43750000       0.31250000       0.00000000 </v>
   <v>       0.12500000       0.43750000       0.00000000 </v>
   <v>      -0.31250000       0.12500000       0.00000000 </v>
   <v>       0.12500000      -0.31250000       0.00000000 </v>
   <v>      -0.31250000      -0.43750000       0.00000000 </v>
   <v>      -0.43750000      -0.12500000       0.00000000 </v>
   <v>      -0.43750000       0.31250000       0.00000000 </v>
   <v>       0.25000000      -0.43750000       0.00000000 </v>
   <v>      -0.31250000       0.25000000       0.00000000 </v>
   <v>       0.25000000      -0.31250000       0.00000000 </v>
   <v>      -0.31250000       0.43750000       0.00000000 </v>
   <v>       0.43750000      -0.25000000       0.00000000 </v>
   <v>      -0.31250000       0.31250000       0.00000000 </v>
   <v>       0.37500000      -0.31250000       0.00000000 </v>
   <v>      -0.31250000       0.37500000       0.00000000 </v>
   <v>       0.43750000       0.43750000       0.00000000 </v>
   <v>       0.00000000       0.43750000       0.00000000 </v>
   <v>      -0.43750000       0.00000000       0.00000000 </v>
   <v>      -0.43750000       0.43750000       0.00000000 </v>
   <v>       0.12500000      -0.43750000       0.00000000 </v>
   <v>      -0.43750000       0.12500000       0.00000000 </v>
  </varray>
  <varray name="weights" >
   <v>       0.01041667 </v>
   <v>       0.01041667 </v>
   <v>       0.01041667 </v>
   <v>       0.01041667 </v>
   <v>       0.01041667 </v>
   <v>       0.01041667 </v>
   <v>       0.01041667 </v>
   <v>       0.01041667 </v>
   <v>       0.01041667 </v>
   <v>       0.01041667 </v>
   <v>       0.01041667 </v>
   <v>       0.01041667 </v>
   <v>       0.01041667 </v>
   <v>       0.01041667 </v>
   <v>       0.01041667 </v>
   <v>       0.01041667 </v>
   <v>       0.01041667 </v>
   <v>       0.01041667 </v>
   <v>       0.01041667 </v>
   <v>       0.01041667 </v>
   <v>       0.01041667 </v>
   <v>       0.01041667 </v>
   <v>       0.01041667 </v>
   <v>       0.01041667 </v>
   <v>       0.01041667 </v>
   <v>       0.01041667 </v>
   <v>       0.01041667 </v>
   <v>       0.01041667 </v>
   <v>       0.01041667 </v>
   <v>       0.01041667 </v>
   <v>       0.01041667 </v>
   <v>       0.01041667 </v>
   <v>       0.01041667 </v>
   <v>       0.01041667 </v>
   <v>       0.01041667 </v>
   <v>       0.01041667 </v>
   <v>       0.01041667 </v>
   <v>       0.01041667 </v>
   <v>       0.01041667 </v>
   <v>       0.01041667 </v>
   <v>       0.01041667 </v>
   <v>       0.01041667 </v>
   <v>       0.01041667 </v>
   <v>       0.01041667 </v>
   <v>       0.01041667 </v>
   <v>       0.01041667 </v>
   <v>       0.01041667 </v>
   <v>       0.01041667 </v>
   <v>       0.01041667 </v>
   <v>       0.01041667 </v>
   <v>       0.01041667 </v>
   <v>       0.01041667 </v>
   <v>       0.01041667 </v>
   <v>       0.01041667 </v>
   <v>       0.01041667 </v>
   <v>       0.01041667 </v>
   <v>       0.01041667 </v>
   <v>       0.01041667 </v>
   <v>       0.01041667 </v>
   <v>       0.01041667 </v>
   <v>       0.01041667 </v>
   <v>       0.01041667 </v>
   <v>       0.01041667 </v>
   <v>       0.01041667 </v>
   <v>       0.01041667 </v>
   <v>       0.01041667 </v>
   <v>       0.01041667 </v>
   <v>       0.01041667 </v>
   <v>       0.01041667 </v>
   <v>       0.01041667 </v>
   <v>       0.01041667 </v>
   <v>       0.01041667 </v>
   <v>       0.01041667 </v>
   <v>       0.01041667 </v>
   <v>       0.01041667 </v>
   <v>       0.01041667 </v>
   <v>       0.01041667 </v>
   <v>       0.01041667 </v>
   <v>       0.01041667 </v>
   <v>       0.01041667 </v>
   <v>       0.01041667 </v>
   <v>       0.01041667 </v>
   <v>       0.01041667 </v>
   <v>       0.01041667 </v>
   <v>       0.01041667 </v>
   <v>       0.01041667 </v>
   <v>       0.01041667 </v>
   <v>       0.01041667 </v>
   <v>       0.01041667 </v>
   <v>       0.01041667 </v>
   <v>       0.01041667 </v>
   <v>       0.01041667 </v>
   <v>       0.01041667 </v>
   <v>       0.01041667 </v>
   <v>       0.01041667 </v>
   <v>       0.01041667 </v>
  </varray>
 </kpoints>
 <parameters>
  <separator name="general" >
   <i type="string" name="SYSTEM">unknown system</i>
   <i type="logical" name="LCOMPAT"> F  </i>
  </separator>
  <separator name="electronic" >
   <i type="string" name="PREC">normal</i>
   <i name="ENMAX">    450.00000000</i>
   <i name="ENAUG">    605.39200000</i>
   <i name="EDIFF">      0.00000100</i>
   <i type="int" name="IALGO">    38</i>
   <i type="int" name="IWAVPR">    11</i>
   <i type="int" name="NBANDS">    82</i>
   <i name="NELECT">    136.00000000</i>
   <i type="int" name="TURBO">     0</i>
   <i type="int" name="IRESTART">     0</i>
   <i type="int" name="NREBOOT">     0</i>
   <i type="int" name="NMIN">     0</i>
   <i name="EREF">      0.00000000</i>
   <separator name="electronic smearing" >
    <i type="int" name="ISMEAR">     2</i>
    <i name="SIGMA">      0.20000000</i>
    <i name="KSPACING">      0.50000000</i>
    <i type="logical" name="KGAMMA"> T  </i>
   </separator>
   <separator name="electronic projectors" >
    <i type="logical" name="LREAL"> F  </i>
    <v name="ROPT">      0.00000000      0.00000000      0.00000000      0.00000000</v>
    <i type="int" name="LMAXPAW">  -100</i>
    <i type="int" name="LMAXMIX">     2</i>
    <i type="logical" name="NLSPLINE"> F  </i>
   </separator>
   <separator name="electronic startup" >
    <i type="int" name="ISTART">     0</i>
    <i type="int" name="ICHARG">     2</i>
    <i type="int" name="INIWAV">     1</i>
   </separator>
   <separator name="electronic spin" >
    <i type="int" name="ISPIN">     1</i>
    <i type="logical" name="LNONCOLLINEAR"> F  </i>
    <v name="MAGMOM">      1.00000000      1.00000000      1.00000000      1.00000000      1.00000000      1.00000000      1.00000000      1.00000000      1.00000000      1.00000000      1.00000000      1.00000000      1.00000000      1.00000000      1.00000000</v>
    <i name="NUPDOWN">     -1.00000000</i>
    <i type="logical" name="LSORBIT"> F  </i>
    <v name="SAXIS">      0.00000000      0.00000000      1.00000000</v>
    <i type="logical" name="LSPIRAL"> F  </i>
    <v name="QSPIRAL">      0.00000000      0.00000000      0.00000000</v>
    <i type="logical" name="LZEROZ"> F  </i>
   </separator>
   <separator name="electronic exchange-correlation" >
    <i type="logical" name="LASPH"> F  </i>
    <i type="logical" name="LMETAGGA"> F  </i>
   </separator>
   <separator name="electronic convergence" >
    <i type="int" name="NELM">    60</i>
    <i type="int" name="NELMDL">    -5</i>
    <i type="int" name="NELMIN">     8</i>
    <i name="ENINI">    450.00000000</i>
    <separator name="electronic convergence detail" >
     <i type="logical" name="LDIAG"> T  </i>
     <i type="logical" name="LSUBROT"> F  </i>
     <i name="WEIMIN">      0.00100000</i>
     <i name="EBREAK">      0.00000000</i>
     <i name="DEPER">      0.30000000</i>
     <i type="int" name="NRMM">     4</i>
     <i name="TIME">      0.40000000</i>
    </separator>
   </separator>
   <separator name="electronic mixer" >
    <i name="AMIX">      0.40000000</i>
    <i name="BMIX">      1.00000000</i>
    <i name="AMIN">      0.10000000</i>
    <i name="AMIX_MAG">      1.60000000</i>
    <i name="BMIX_MAG">      1.00000000</i>
    <separator name="electronic mixer details" >
     <i type="int" name="IMIX">     4</i>
     <i type="logical" name="MIXFIRST"> F  </i>
     <i type="int" name="MAXMIX">   -45</i>
     <i name="WC">    100.00000000</i>
     <i type="int" name="INIMIX">     1</i>
     <i type="int" name="MIXPRE">     1</i>
     <i type="int" name="MREMOVE">     5</i>
    </separator>
   </separator>
   <separator name="electronic dipolcorrection" >
    <i type="logical" name="LDIPOL"> T  </i>
    <i type="logical" name="LMONO"> F  </i>
    <i type="int" name="IDIPOL">     3</i>
    <i name="EPSILON">      1.00000000</i>
    <v name="DIPOL">   -100.00000000   -100.00000000   -100.00000000</v>
    <i name="EFIELD">      0.00000000</i>
   </separator>
  </separator>
  <separator name="grids" >
   <i type="int" name="NGX">    28</i>
   <i type="int" name="NGY">    28</i>
   <i type="int" name="NGZ">   120</i>
   <i type="int" name="NGXF">    56</i>
   <i type="int" name="NGYF">    56</i>
   <i type="int" name="NGZF">   240</i>
   <i type="logical" name="ADDGRID"> F  </i>
  </separator>
  <separator name="ionic" >
   <i type="int" name="NSW">  1500</i>
   <i type="int" name="IBRION">     2</i>
   <i type="int" name="MDALGO">     0</i>
   <i type="int" name="ISIF">     2</i>
   <i name="PSTRESS">      0.00000000</i>
   <i name="EDIFFG">     -0.01000000</i>
   <i type="int" name="NFREE">     1</i>
   <i name="POTIM">      0.20000000</i>
   <i name="SMASS">     -3.00000000</i>
   <i name="SCALEE">      1.00000000</i>
  </separator>
  <separator name="ionic md" >
   <i name="TEBEG">      0.00010000</i>
   <i name="TEEND">      0.00010000</i>
   <i type="int" name="NBLOCK">     1</i>
   <i type="int" name="KBLOCK">  1500</i>
   <i type="int" name="NPACO">   256</i>
   <i name="APACO">     16.00000000</i>
  </separator>
  <separator name="symmetry" >
   <i type="int" name="ISYM">     2</i>
   <i name="SYMPREC">      0.00001000</i>
  </separator>
  <separator name="dos" >
   <i type="int" name="LORBIT">     0</i>
   <v name="RWIGS">     -1.00000000     -1.00000000     -1.00000000     -1.00000000</v>
   <i type="int" name="NEDOS">   301</i>
   <i name="EMIN">     10.00000000</i>
   <i name="EMAX">    -10.00000000</i>
   <i name="EFERMI">      0.00000000</i>
  </separator>
  <separator name="writing" >
   <i type="int" name="NWRITE">     2</i>
   <i type="logical" name="LWAVE"> F  </i>
   <i type="logical" name="LDOWNSAMPLE"> F  </i>
   <i type="logical" name="LCHARG"> T  </i>
   <i type="logical" name="LPARD"> F  </i>
   <i type="logical" name="LVTOT"> F  </i>
   <i type="logical" name="LVHAR"> F  </i>
   <i type="logical" name="LELF"> F  </i>
   <i type="logical" name="LOPTICS"> F  </i>
   <v name="STM">      0.00000000      0.00000000      0.00000000      0.00000000      0.00000000      0.00000000      0.00000000</v>
  </separator>
  <separator name="performance" >
   <i type="int" name="NPAR">     2</i>
   <i type="int" name="NSIM">     4</i>
   <i type="int" name="NBLK">    -1</i>
   <i type="logical" name="LPLANE"> T  </i>
   <i type="logical" name="LSCALAPACK"> T  </i>
   <i type="logical" name="LSCAAWARE"> F  </i>
   <i type="logical" name="LSCALU"> F  </i>
   <i type="logical" name="LASYNC"> F  </i>
   <i type="logical" name="LORBITALREAL"> F  </i>
  </separator>
  <separator name="miscellaneous" >
   <i type="int" name="IDIOT">     3</i>
   <i type="int" name="ISPECIAL">     0</i>
   <i type="logical" name="LMUSIC"> F  </i>
   <v name="POMASS">    195.08000000    107.86800000     16.00000000      1.00000000</v>
   <v name="DARWINR">      0.00000000      0.00000000      0.00000000      0.00000000</v>
   <v name="DARWINV">      1.00000000      1.00000000      1.00000000      1.00000000</v>
   <i type="logical" name="LCORR"> T  </i>
  </separator>
  <i type="logical" name="GGA_COMPAT"> T  </i>
  <i type="logical" name="LBERRY"> F  </i>
  <i type="int" name="ICORELEVEL">     0</i>
  <i type="logical" name="LDAU"> F  </i>
  <i type="int" name="I_CONSTRAINED_M">     0</i>
  <separator name="electronic exchange-correlation" >
   <i type="string" name="GGA">91</i>
   <i type="int" name="VOSKOWN">     0</i>
   <i type="logical" name="LHFCALC"> F  </i>
   <i type="string" name="PRECFOCK"></i>
   <i type="logical" name="LSYMGRAD"> F  </i>
   <i type="logical" name="LHFONE"> F  </i>
   <i type="logical" name="LRHFCALC"> F  </i>
   <i type="logical" name="LTHOMAS"> F  </i>
   <i type="logical" name="LMODELHF"> F  </i>
   <i name="ENCUT4O">     -1.00000000</i>
   <i type="int" name="EXXOEP">     0</i>
   <i type="int" name="FOURORBIT">     0</i>
   <i name="AEXX">      0.00000000</i>
   <i name="HFALPHA">      0.00000000</i>
   <i name="MCALPHA">      0.00000000</i>
   <i name="ALDAX">      1.00000000</i>
   <i name="AGGAX">      1.00000000</i>
   <i name="ALDAC">      1.00000000</i>
   <i name="AGGAC">      1.00000000</i>
   <i type="int" name="NKREDX">     1</i>
   <i type="int" name="NKREDY">     1</i>
   <i type="int" name="NKREDZ">     1</i>
   <i type="logical" name="SHIFTRED"> F  </i>
   <i type="logical" name="ODDONLY"> F  </i>
   <i type="logical" name="EVENONLY"> F  </i>
   <i type="int" name="LMAXFOCK">     0</i>
   <i type="int" name="NMAXFOCKAE">     0</i>
   <i type="logical" name="LFOCKAEDFT"> F  </i>
   <i name="HFSCREEN">      0.00000000</i>
   <i name="HFSCREENC">      0.00000000</i>
   <i type="int" name="NBANDSGWLOW">     0</i>
  </separator>
  <separator name="vdW DFT" >
   <i type="logical" name="LUSE_VDW"> F  </i>
   <i name="Zab_VDW">     -0.84910000</i>
   <i name="PARAM1">      0.12340000</i>
   <i name="PARAM2">      1.00000000</i>
   <i name="PARAM3">      0.00000000</i>
  </separator>
  <separator name="model GW" >
   <i type="int" name="MODEL_GW">     0</i>
   <i name="MODEL_EPS0">     18.26964953</i>
   <i name="MODEL_ALPHA">      1.00000000</i>
  </separator>
  <separator name="linear response parameters" >
   <i type="logical" name="LEPSILON"> F  </i>
   <i type="logical" name="LRPA"> F  </i>
   <i type="logical" name="LNABLA"> F  </i>
   <i type="logical" name="LVEL"> F  </i>
   <i type="int" name="KINTER">     0</i>
   <i name="CSHIFT">      0.10000000</i>
   <i name="OMEGAMAX">     -1.00000000</i>
   <i name="DEG_THRESHOLD">      0.00200000</i>
   <i name="RTIME">     -0.10000000</i>
   <i name="WPLASMAI">      0.00000000</i>
   <v name="DFIELD">      0.00000000      0.00000000      0.00000000</v>
   <v name="WPLASMA">      0.00000000      0.00000000      0.00000000      0.00000000      0.00000000      0.00000000      0.00000000      0.00000000      0.00000000</v>
  </separator>
  <separator name="orbital magnetization" >
   <i type="logical" name="NUCIND"> F  </i>
   <v name="MAGPOS">      0.00000000      0.00000000      0.00000000</v>
   <i type="logical" name="LNICSALL"> T  </i>
   <i type="logical" name="ORBITALMAG"> F  </i>
   <i type="logical" name="LMAGBLOCH"> F  </i>
   <i type="logical" name="LCHIMAG"> F  </i>
   <i type="logical" name="LGAUGE"> T  </i>
   <i type="int" name="MAGATOM">     0</i>
   <v name="MAGDIPOL">      0.00000000      0.00000000      0.00000000</v>
   <v name="AVECCONST">      0.00000000      0.00000000      0.00000000</v>
  </separator>
  <separator name="response functions" >
   <i type="logical" name="LADDER"> F  </i>
   <i type="logical" name="LRPAFORCE"> F  </i>
   <i type="logical" name="LFXC"> F  </i>
   <i type="logical" name="LHARTREE"> T  </i>
   <i type="int" name="IBSE">     0</i>
   <v type="int" name="KPOINT">    -1     0     0     0</v>
   <i type="logical" name="LTCTE"> F  </i>
   <i type="logical" name="LTETE"> F  </i>
   <i type="logical" name="LTRIPLET"> F  </i>
   <i type="logical" name="LFXCEPS"> F  </i>
   <i type="logical" name="LFXHEG"> F  </i>
   <i type="int" name="NATURALO">     2</i>
   <i type="logical" name="L2ORDER"> F  </i>
   <i type="logical" name="LMP2LT"> F  </i>
   <i type="logical" name="LUSEW"> F  </i>
   <i name="ENCUTGW">     -2.00000000</i>
   <i name="ENCUTGWSOFT">     -2.00000000</i>
   <i name="ENCUTLF">     -1.00000000</i>
   <i type="int" name="LMAXMP2">    -1</i>
   <i name="SCISSOR">      0.00000000</i>
   <i type="int" name="NOMEGA">     0</i>
   <i type="int" name="NOMEGAR">     0</i>
   <i type="int" name="NBANDSGW">    -1</i>
   <i type="int" name="NBANDSO">    -1</i>
   <i type="int" name="NBANDSV">    -1</i>
   <i type="int" name="NELM">     1</i>
   <i type="int" name="NELMHF">     1</i>
   <i type="int" name="DIM">     3</i>
   <i type="int" name="ANTIRES">     0</i>
   <i name="OMEGAMAX">    -30.00000000</i>
   <i name="OMEGAMIN">    -30.00000000</i>
   <i name="OMEGATL">   -200.00000000</i>
   <i type="int" name="OMEGAGRID">   140</i>
   <i name="CSHIFT">     -0.10000000</i>
   <i type="logical" name="SELFENERGY"> F  </i>
   <i type="logical" name="LSPECTRAL"> F  </i>
   <i type="logical" name="LSPECTRALGW"> F  </i>
   <i type="logical" name="LSINGLES"> F  </i>
   <i type="logical" name="LFERMIGW"> F  </i>
   <i type="logical" name="ODDONLYGW"> F  </i>
   <i type="logical" name="EVENONLYGW"> F  </i>
   <i type="int" name="NKREDLFX">     1</i>
   <i type="int" name="NKREDLFY">     1</i>
   <i type="int" name="NKREDLFZ">     1</i>
   <i type="int" name="MAXMEM">  2800</i>
   <i type="int" name="TELESCOPE">     0</i>
   <i type="int" name="TAUPAR">     1</i>
   <i type="int" name="OMEGAPAR">    -1</i>
   <i name="LAMBDA">      1.00000000</i>
  </separator>
  <separator name="External order field" >
   <i name="OFIELD_KAPPA">      0.00000000</i>
   <v name="OFIELD_K">      0.00000000      0.00000000      0.00000000</v>
   <i name="OFIELD_Q6_NEAR">      0.00000000</i>
   <i name="OFIELD_Q6_FAR">      0.00000000</i>
   <i name="OFIELD_A">      0.00000000</i>
  </separator>
 </parameters>
 <atominfo>
  <atoms>      15 </atoms>
  <types>       4 </types>
  <array name="atoms" >
   <dimension dim="1">ion</dimension>
   <field type="string">element</field>
   <field type="int">atomtype</field>
   <set>
    <rc><c>Pt</c><c>   1</c></rc>
    <rc><c>Pt</c><c>   1</c></rc>
    <rc><c>Pt</c><c>   1</c></rc>
    <rc><c>Pt</c><c>   1</c></rc>
    <rc><c>Pt</c><c>   1</c></rc>
    <rc><c>Pt</c><c>   1</c></rc>
    <rc><c>Pt</c><c>   1</c></rc>
    <rc><c>Pt</c><c>   1</c></rc>
    <rc><c>Pt</c><c>   1</c></rc>
    <rc><c>Ag</c><c>   2</c></rc>
    <rc><c>Ag</c><c>   2</c></rc>
    <rc><c>Ag</c><c>   2</c></rc>
    <rc><c>O </c><c>   3</c></rc>
    <rc><c>O </c><c>   3</c></rc>
    <rc><c>H </c><c>   4</c></rc>
   </set>
  </array>
  <array name="atomtypes" >
   <dimension dim="1">type</dimension>
   <field type="int">atomspertype</field>
   <field type="string">element</field>
   <field>mass</field>
   <field>valence</field>
   <field type="string">pseudopotential</field>
   <set>
    <rc><c>   9</c><c>Pt</c><c>    195.08000000</c><c>     10.00000000</c><c> PAW_PBE Pt 05Jan2001                   </c></rc>
    <rc><c>   3</c><c>Ag</c><c>    107.86800000</c><c>     11.00000000</c><c> PAW_PBE Ag 06Sep2000                   </c></rc>
    <rc><c>   2</c><c>O </c><c>     16.00000000</c><c>      6.00000000</c><c> PAW_PBE O 08Apr2002                    </c></rc>
    <rc><c>   1</c><c>H </c><c>      1.00000000</c><c>      1.00000000</c><c> PAW_PBE H 15Jun2001                    </c></rc>
   </set>
  </array>
 </atominfo>
 <structure name="initialpos" >
  <crystal>
   <varray name="basis" >
    <v>       4.88428255       0.00000000       0.00000000 </v>
    <v>       2.44214127       4.22991277       0.00000000 </v>
    <v>       0.00000000       0.00000000      22.10741862 </v>
   </varray>
   <i name="volume">    456.74123834 </i>
   <varray name="rec_basis" >
    <v>       0.20473836      -0.11820575       0.00000000 </v>
    <v>      -0.00000000       0.23641149       0.00000000 </v>
    <v>       0.00000000       0.00000000       0.04523368 </v>
   </varray>
  </crystal>
  <varray name="positions" >
   <v>       0.30286415       0.49410690       0.00209390 </v>
   <v>       0.63619748       0.82744023       0.00209390 </v>
   <v>       0.96953081       0.16077357       0.00209390 </v>
   <v>       0.63619748       0.49410690       0.10624323 </v>
   <v>       0.96953081       0.82744023       0.10624323 </v>
   <v>       0.30286415       0.16077357       0.10624323 </v>
   <v>       0.30286415       0.49410690       0.32250707 </v>
   <v>       0.63619748       0.82744023       0.32250707 </v>
   <v>       0.96953081       0.16077357       0.32250707 </v>
   <v>       0.96953081       0.49410690       0.21495914 </v>
   <v>       0.30286415       0.82744023       0.21495914 </v>
   <v>       0.63619748       0.16077357       0.21495914 </v>
   <v>       0.76871130       0.99259116       0.43532491 </v>
   <v>       0.63852722       0.81279312       0.40965579 </v>
   <v>       0.99225302       0.83012516       0.44138925 </v>
  </varray>
  <varray name="selective"  type="logical" >
   <v type="logical" >  F  F  F </v>
   <v type="logical" >  F  F  F </v>
   <v type="logical" >  F  F  F </v>
   <v type="logical" >  F  F  F </v>
   <v type="logical" >  F  F  F </v>
   <v type="logical" >  F  F  F </v>
   <v type="logical" >  T  T  T </v>
   <v type="logical" >  T  T  T </v>
   <v type="logical" >  T  T  T </v>
   <v type="logical" >  T  T  T </v>
   <v type="logical" >  T  T  T </v>
   <v type="logical" >  T  T  T </v>
   <v type="logical" >  T  T  T </v>
   <v type="logical" >  T  T  T </v>
   <v type="logical" >  T  T  T </v>
  </varray>
  <nose>
   <v>      -3.00000000       0.00000000       0.00010000       0.00010000 </v>
  </nose>
 </structure>
 <calculation>
  <scstep>
   <time name="dav">    7.69    7.79</time>
   <time name="total">    7.75    7.91</time>
   <dipole>
    <v name="dipole">      0.00000000       0.00000000      -0.00010387 </v>
    <i name="Tr[quadrupol]">   -559.11040417 </i>
    <i name="Echarged">      0.00000000 </i>
    <i name="Edipol_quadrupol">      0.00000000 </i>
    <i name="Eion">      0.00000000 </i>
   </dipole>
   <energy>
    <i name="alphaZ">    548.62901754 </i>
    <i name="ewald">  30991.31294495 </i>
    <i name="hartreedc"> -42111.69923079 </i>
    <i name="XCdc">     52.04459796 </i>
    <i name="pawpsdc">   8266.65814282 </i>
    <i name="pawaedc">  -7877.46843499 </i>
    <i name="eentropy">      0.00203521 </i>
    <i name="bandstr">    899.08336560 </i>
    <i name="atom">  10551.18520662 </i>
    <i name="e_fr_energy">   1319.74764491 </i>
    <i name="e_wo_entrp">   1319.74560970 </i>
    <i name="e_0_energy">   1319.74713611 </i>
   </energy>
  </scstep>
  <scstep>
   <time name="dav">    7.66    7.66</time>
   <time name="total">    7.67    7.68</time>
   <dipole>
    <v name="dipole">      0.00000000       0.00000000      -0.00010387 </v>
    <i name="Tr[quadrupol]">   -559.11040417 </i>
    <i name="Echarged">      0.00000000 </i>
    <i name="Edipol_quadrupol">      0.00000000 </i>
    <i name="Eion">      0.00000000 </i>
   </dipole>
   <energy>
    <i name="e_fr_energy">     67.63372910 </i>
    <i name="e_wo_entrp">     67.63681448 </i>
    <i name="e_0_energy">     67.63450044 </i>
   </energy>
  </scstep>
  <scstep>
   <time name="dav">    9.38    9.38</time>
   <time name="total">    9.39    9.40</time>
   <dipole>
    <v name="dipole">      0.00000000       0.00000000      -0.00010387 </v>
    <i name="Tr[quadrupol]">   -559.11040417 </i>
    <i name="Echarged">      0.00000000 </i>
    <i name="Edipol_quadrupol">      0.00000000 </i>
    <i name="Eion">      0.00000000 </i>
   </dipole>
   <energy>
    <i name="e_fr_energy">    -71.78363355 </i>
    <i name="e_wo_entrp">    -71.77420587 </i>
    <i name="e_0_energy">    -71.78127663 </i>
   </energy>
  </scstep>
  <scstep>
   <time name="dav">    8.98    8.98</time>
   <time name="total">    9.00    9.00</time>
   <dipole>
    <v name="dipole">      0.00000000       0.00000000      -0.00010387 </v>
    <i name="Tr[quadrupol]">   -559.11040417 </i>
    <i name="Echarged">      0.00000000 </i>
    <i name="Edipol_quadrupol">      0.00000000 </i>
    <i name="Eion">      0.00000000 </i>
   </dipole>
   <energy>
    <i name="e_fr_energy">    -80.83524442 </i>
    <i name="e_wo_entrp">    -80.80516778 </i>
    <i name="e_0_energy">    -80.82772526 </i>
   </energy>
  </scstep>
  <scstep>
   <time name="dav">    9.89    9.89</time>
   <time name="total">   10.42   10.44</time>
   <dipole>
    <v name="dipole">      0.00000000       0.00000000      -0.00010387 </v>
    <i name="Tr[quadrupol]">   -559.11040417 </i>
    <i name="Echarged">      0.00000000 </i>
    <i name="Edipol_quadrupol">      0.00000000 </i>
    <i name="Eion">      0.00000000 </i>
   </dipole>
   <energy>
    <i name="e_fr_energy">    -81.13620208 </i>
    <i name="e_wo_entrp">    -81.10597214 </i>
    <i name="e_0_energy">    -81.12864460 </i>
   </energy>
  </scstep>
  <scstep>
   <time name="dav">   11.25   11.25</time>
   <time name="total">   11.79   11.79</time>
   <dipole>
    <v name="dipole">      0.00000000       0.00000000       0.48564187 </v>
    <i name="Tr[quadrupol]">   -557.85379787 </i>
    <i name="Echarged">      0.00000000 </i>
    <i name="Edipol_quadrupol">      0.00000000 </i>
    <i name="Eion">      0.00000000 </i>
   </dipole>
   <energy>
    <i name="e_fr_energy">    -86.53946614 </i>
    <i name="e_wo_entrp">    -86.55154510 </i>
    <i name="e_0_energy">    -86.54248588 </i>
   </energy>
  </scstep>
  <scstep>
   <time name="dav">   12.35   12.36</time>
   <time name="total">   12.88   12.88</time>
   <dipole>
    <v name="dipole">      0.00000000       0.00000000      -0.71587337 </v>
    <i name="Tr[quadrupol]">   -558.21959251 </i>
    <i name="Echarged">      0.00000000 </i>
    <i name="Edipol_quadrupol">      0.00000000 </i>
    <i name="Eion">      0.00000000 </i>
   </dipole>
   <energy>
    <i name="e_fr_energy">    -98.38254811 </i>
    <i name="e_wo_entrp">    -98.37048524 </i>
    <i name="e_0_energy">    -98.37953239 </i>
   </energy>
  </scstep>
  <scstep>
   <time name="dav">   11.72   11.72</time>
   <time name="total">   12.25   12.25</time>
   <dipole>
    <v name="dipole">      0.00000000       0.00000000      -0.07760073 </v>
    <i name="Tr[quadrupol]">   -559.99822828 </i>
    <i name="Echarged">      0.00000000 </i>
    <i name="Edipol_quadrupol">      0.00000000 </i>
    <i name="Eion">      0.00000000 </i>
   </dipole>
   <energy>
    <i name="e_fr_energy">    -79.33175935 </i>
    <i name="e_wo_entrp">    -79.31872383 </i>
    <i name="e_0_energy">    -79.32850047 </i>
   </energy>
  </scstep>
  <scstep>
   <time name="dav">   10.96   10.96</time>
   <time name="total">   11.50   11.50</time>
   <dipole>
    <v name="dipole">      0.00000000       0.00000000      -0.02000198 </v>
    <i name="Tr[quadrupol]">   -558.68549042 </i>
    <i name="Echarged">      0.00000000 </i>
    <i name="Edipol_quadrupol">      0.00000000 </i>
    <i name="Eion">      0.00000000 </i>
   </dipole>
   <energy>
    <i name="e_fr_energy">    -75.43315911 </i>
    <i name="e_wo_entrp">    -75.41348900 </i>
    <i name="e_0_energy">    -75.42824158 </i>
   </energy>
  </scstep>
  <scstep>
   <time name="dav">   10.14   10.15</time>
   <time name="total">   10.67   10.68</time>
   <dipole>
    <v name="dipole">      0.00000000       0.00000000      -0.03341150 </v>
    <i name="Tr[quadrupol]">   -558.85900806 </i>
    <i name="Echarged">      0.00000000 </i>
    <i name="Edipol_quadrupol">      0.00000000 </i>
    <i name="Eion">      0.00000000 </i>
   </dipole>
   <energy>
    <i name="e_fr_energy">    -74.89885793 </i>
    <i name="e_wo_entrp">    -74.86778738 </i>
    <i name="e_0_energy">    -74.89109030 </i>
   </energy>
  </scstep>
  <scstep>
   <time name="dav">   10.01   10.01</time>
   <time name="total">   10.54   10.55</time>
   <dipole>
    <v name="dipole">      0.00000000       0.00000000      -0.02354395 </v>
    <i name="Tr[quadrupol]">   -558.79350707 </i>
    <i name="Echarged">      0.00000000 </i>
    <i name="Edipol_quadrupol">      0.00000000 </i>
    <i name="Eion">      0.00000000 </i>
   </dipole>
   <energy>
    <i name="e_fr_energy">    -74.72493828 </i>
    <i name="e_wo_entrp">    -74.69016682 </i>
    <i name="e_0_energy">    -74.71624541 </i>
   </energy>
  </scstep>
  <scstep>
   <time name="dav">   13.67   13.68</time>
   <time name="total">   14.45   14.46</time>
   <dipole>
    <v name="dipole">      0.00000000       0.00000000      -0.00346202 </v>
    <i name="Tr[quadrupol]">   -558.84143113 </i>
    <i name="Echarged">      0.00000000 </i>
    <i name="Edipol_quadrupol">      0.00000000 </i>
    <i name="Eion">      0.00000000 </i>
   </dipole>
   <energy>
    <i name="e_fr_energy">    -74.52563816 </i>
    <i name="e_wo_entrp">    -74.49087950 </i>
    <i name="e_0_energy">    -74.51694850 </i>
   </energy>
  </scstep>
  <scstep>
   <time name="dav">   10.44   10.44</time>
   <time name="total">   10.98   10.99</time>
   <dipole>
    <v name="dipole">      0.00000000       0.00000000      -0.00802099 </v>
    <i name="Tr[quadrupol]">   -558.86190771 </i>
    <i name="Echarged">      0.00000000 </i>
    <i name="Edipol_quadrupol">      0.00000000 </i>
    <i name="Eion">      0.00000000 </i>
   </dipole>
   <energy>
    <i name="e_fr_energy">    -74.48721616 </i>
    <i name="e_wo_entrp">    -74.45072085 </i>
    <i name="e_0_energy">    -74.47809234 </i>
   </energy>
  </scstep>
  <scstep>
   <time name="dav">   10.24   10.24</time>
   <time name="total">   10.78   10.78</time>
   <dipole>
    <v name="dipole">      0.00000000       0.00000000      -0.01404924 </v>
    <i name="Tr[quadrupol]">   -558.93574259 </i>
    <i name="Echarged">      0.00000000 </i>
    <i name="Edipol_quadrupol">      0.00000000 </i>
    <i name="Eion">      0.00000000 </i>
   </dipole>
   <energy>
    <i name="e_fr_energy">    -74.46920661 </i>
    <i name="e_wo_entrp">    -74.42876096 </i>
    <i name="e_0_energy">    -74.45909519 </i>
   </energy>
  </scstep>
  <scstep>
   <time name="dav">    9.94    9.95</time>
   <time name="total">   10.49   10.49</time>
   <dipole>
    <v name="dipole">      0.00000000       0.00000000      -0.01839602 </v>
    <i name="Tr[quadrupol]">   -559.02694579 </i>
    <i name="Echarged">      0.00000000 </i>
    <i name="Edipol_quadrupol">      0.00000000 </i>
    <i name="Eion">      0.00000000 </i>
   </dipole>
   <energy>
    <i name="e_fr_energy">    -74.46565977 </i>
    <i name="e_wo_entrp">    -74.42642195 </i>
    <i name="e_0_energy">    -74.45585032 </i>
   </energy>
  </scstep>
  <scstep>
   <time name="dav">    9.72    9.72</time>
   <time name="total">   10.27   10.27</time>
   <dipole>
    <v name="dipole">      0.00000000       0.00000000      -0.01786817 </v>
    <i name="Tr[quadrupol]">   -559.06170060 </i>
    <i name="Echarged">      0.00000000 </i>
    <i name="Edipol_quadrupol">      0.00000000 </i>
    <i name="Eion">      0.00000000 </i>
   </dipole>
   <energy>
    <i name="e_fr_energy">    -74.46416923 </i>
    <i name="e_wo_entrp">    -74.42571442 </i>
    <i name="e_0_energy">    -74.45455553 </i>
   </energy>
  </scstep>
  <scstep>
   <time name="dav">    9.81    9.82</time>
   <time name="total">   10.36   10.36</time>
   <dipole>
    <v name="dipole">      0.00000000       0.00000000      -0.02069768 </v>
    <i name="Tr[quadrupol]">   -559.12693920 </i>
    <i name="Echarged">      0.00000000 </i>
    <i name="Edipol_quadrupol">      0.00000000 </i>
    <i name="Eion">      0.00000000 </i>
   </dipole>
   <energy>
    <i name="e_fr_energy">    -74.46358613 </i>
    <i name="e_wo_entrp">    -74.42505595 </i>
    <i name="e_0_energy">    -74.45395358 </i>
   </energy>
  </scstep>
  <scstep>
   <time name="dav">   10.00   10.01</time>
   <time name="total">   10.54   10.55</time>
   <dipole>
    <v name="dipole">      0.00000000       0.00000000      -0.02207407 </v>
    <i name="Tr[quadrupol]">   -559.16280043 </i>
    <i name="Echarged">      0.00000000 </i>
    <i name="Edipol_quadrupol">      0.00000000 </i>
    <i name="Eion">      0.00000000 </i>
   </dipole>
   <energy>
    <i name="e_fr_energy">    -74.46317072 </i>
    <i name="e_wo_entrp">    -74.42462720 </i>
    <i name="e_0_energy">    -74.45353484 </i>
   </energy>
  </scstep>
  <scstep>
   <time name="dav">    9.67    9.68</time>
   <time name="total">   10.22   10.22</time>
   <dipole>
    <v name="dipole">      0.00000000       0.00000000      -0.02441155 </v>
    <i name="Tr[quadrupol]">   -559.22382945 </i>
    <i name="Echarged">      0.00000000 </i>
    <i name="Edipol_quadrupol">      0.00000000 </i>
    <i name="Eion">      0.00000000 </i>
   </dipole>
   <energy>
    <i name="e_fr_energy">    -74.46284842 </i>
    <i name="e_wo_entrp">    -74.42431596 </i>
    <i name="e_0_energy">    -74.45321531 </i>
   </energy>
  </scstep>
  <scstep>
   <time name="dav">    8.30    8.30</time>
   <time name="total">    8.84    8.84</time>
   <dipole>
    <v name="dipole">      0.00000000       0.00000000      -0.02609200 </v>
    <i name="Tr[quadrupol]">   -559.26288845 </i>
    <i name="Echarged">      0.00000000 </i>
    <i name="Edipol_quadrupol">      0.00000000 </i>
    <i name="Eion">      0.00000000 </i>
   </dipole>
   <energy>
    <i name="e_fr_energy">    -74.46279248 </i>
    <i name="e_wo_entrp">    -74.42427453 </i>
    <i name="e_0_energy">    -74.45316299 </i>
   </energy>
  </scstep>
  <scstep>
   <time name="dav">    8.77    8.78</time>
   <time name="total">    9.31    9.32</time>
   <dipole>
    <v name="dipole">      0.00000000       0.00000000      -0.02648780 </v>
    <i name="Tr[quadrupol]">   -559.28331165 </i>
    <i name="Echarged">      0.00000000 </i>
    <i name="Edipol_quadrupol">      0.00000000 </i>
    <i name="Eion">      0.00000000 </i>
   </dipole>
   <energy>
    <i name="e_fr_energy">    -74.46280633 </i>
    <i name="e_wo_entrp">    -74.42443551 </i>
    <i name="e_0_energy">    -74.45321363 </i>
   </energy>
  </scstep>
  <scstep>
   <time name="dav">    7.77    7.77</time>
   <time name="total">    8.31    8.32</time>
   <dipole>
    <v name="dipole">      0.00000000       0.00000000      -0.02864081 </v>
    <i name="Tr[quadrupol]">   -559.32189147 </i>
    <i name="Echarged">      0.00000000 </i>
    <i name="Edipol_quadrupol">      0.00000000 </i>
    <i name="Eion">      0.00000000 </i>
   </dipole>
   <energy>
    <i name="e_fr_energy">    -74.46291078 </i>
    <i name="e_wo_entrp">    -74.42441780 </i>
    <i name="e_0_energy">    -74.45328754 </i>
   </energy>
  </scstep>
  <scstep>
   <time name="dav">    8.57    8.57</time>
   <time name="total">    9.12    9.12</time>
   <dipole>
    <v name="dipole">      0.00000000       0.00000000      -0.03040550 </v>
    <i name="Tr[quadrupol]">   -559.36366622 </i>
    <i name="Echarged">      0.00000000 </i>
    <i name="Edipol_quadrupol">      0.00000000 </i>
    <i name="Eion">      0.00000000 </i>
   </dipole>
   <energy>
    <i name="e_fr_energy">    -74.46309159 </i>
    <i name="e_wo_entrp">    -74.42473757 </i>
    <i name="e_0_energy">    -74.45350309 </i>
   </energy>
  </scstep>
  <scstep>
   <time name="dav">    8.72    8.72</time>
   <time name="total">    9.27    9.27</time>
   <dipole>
    <v name="dipole">      0.00000000       0.00000000      -0.03318009 </v>
    <i name="Tr[quadrupol]">   -559.40632201 </i>
    <i name="Echarged">      0.00000000 </i>
    <i name="Edipol_quadrupol">      0.00000000 </i>
    <i name="Eion">      0.00000000 </i>
   </dipole>
   <energy>
    <i name="e_fr_energy">    -74.46332577 </i>
    <i name="e_wo_entrp">    -74.42481168 </i>
    <i name="e_0_energy">    -74.45369725 </i>
   </energy>
  </scstep>
  <scstep>
   <time name="dav">   10.48   10.49</time>
   <time name="total">   11.02   11.03</time>
   <dipole>
    <v name="dipole">      0.00000000       0.00000000      -0.03934496 </v>
    <i name="Tr[quadrupol]">   -559.49392250 </i>
    <i name="Echarged">      0.00000000 </i>
    <i name="Edipol_quadrupol">      0.00000000 </i>
    <i name="Eion">      0.00000000 </i>
   </dipole>
   <energy>
    <i name="e_fr_energy">    -74.46373485 </i>
    <i name="e_wo_entrp">    -74.42445814 </i>
    <i name="e_0_energy">    -74.45391567 </i>
   </energy>
  </scstep>
  <scstep>
   <time name="dav">   10.09   10.09</time>
   <time name="total">   10.63   10.64</time>
   <dipole>
    <v name="dipole">      0.00000000       0.00000000      -0.04156936 </v>
    <i name="Tr[quadrupol]">   -559.53238600 </i>
    <i name="Echarged">      0.00000000 </i>
    <i name="Edipol_quadrupol">      0.00000000 </i>
    <i name="Eion">      0.00000000 </i>
   </dipole>
   <energy>
    <i name="e_fr_energy">    -74.46395681 </i>
    <i name="e_wo_entrp">    -74.42444680 </i>
    <i name="e_0_energy">    -74.45407930 </i>
   </energy>
  </scstep>
  <scstep>
   <time name="dav">    6.74    6.74</time>
   <time name="total">    7.27    7.28</time>
   <dipole>
    <v name="dipole">      0.00000000       0.00000000      -0.04329033 </v>
    <i name="Tr[quadrupol]">   -559.55607198 </i>
    <i name="Echarged">      0.00000000 </i>
    <i name="Edipol_quadrupol">      0.00000000 </i>
    <i name="Eion">      0.00000000 </i>
   </dipole>
   <energy>
    <i name="e_fr_energy">    -74.46430559 </i>
    <i name="e_wo_entrp">    -74.42448577 </i>
    <i name="e_0_energy">    -74.45435063 </i>
   </energy>
  </scstep>
  <scstep>
   <time name="dav">    9.86    9.87</time>
   <time name="total">   10.41   10.41</time>
   <dipole>
    <v name="dipole">      0.00000000       0.00000000      -0.04287257 </v>
    <i name="Tr[quadrupol]">   -559.56801707 </i>
    <i name="Echarged">      0.00000000 </i>
    <i name="Edipol_quadrupol">      0.00000000 </i>
    <i name="Eion">      0.00000000 </i>
   </dipole>
   <energy>
    <i name="e_fr_energy">    -74.46414387 </i>
    <i name="e_wo_entrp">    -74.42448477 </i>
    <i name="e_0_energy">    -74.45422910 </i>
   </energy>
  </scstep>
  <scstep>
   <time name="dav">    6.87    6.87</time>
   <time name="total">    7.41    7.41</time>
   <dipole>
    <v name="dipole">      0.00000000       0.00000000      -0.04164709 </v>
    <i name="Tr[quadrupol]">   -559.56933241 </i>
    <i name="Echarged">      0.00000000 </i>
    <i name="Edipol_quadrupol">      0.00000000 </i>
    <i name="Eion">      0.00000000 </i>
   </dipole>
   <energy>
    <i name="e_fr_energy">    -74.46390453 </i>
    <i name="e_wo_entrp">    -74.42452998 </i>
    <i name="e_0_energy">    -74.45406089 </i>
   </energy>
  </scstep>
  <scstep>
   <time name="dav">   12.40   12.41</time>
   <time name="total">   12.95   12.95</time>
   <dipole>
    <v name="dipole">      0.00000000       0.00000000      -0.03853505 </v>
    <i name="Tr[quadrupol]">   -559.57686229 </i>
    <i name="Echarged">      0.00000000 </i>
    <i name="Edipol_quadrupol">      0.00000000 </i>
    <i name="Eion">      0.00000000 </i>
   </dipole>
   <energy>
    <i name="e_fr_energy">    -74.46359361 </i>
    <i name="e_wo_entrp">    -74.42501731 </i>
    <i name="e_0_energy">    -74.45394953 </i>
   </energy>
  </scstep>
  <scstep>
   <time name="dav">   10.42   10.42</time>
   <time name="total">   10.97   10.97</time>
   <dipole>
    <v name="dipole">      0.00000000       0.00000000      -0.03731298 </v>
    <i name="Tr[quadrupol]">   -559.57213811 </i>
    <i name="Echarged">      0.00000000 </i>
    <i name="Edipol_quadrupol">      0.00000000 </i>
    <i name="Eion">      0.00000000 </i>
   </dipole>
   <energy>
    <i name="e_fr_energy">    -74.46358293 </i>
    <i name="e_wo_entrp">    -74.42540780 </i>
    <i name="e_0_energy">    -74.45403915 </i>
   </energy>
  </scstep>
  <scstep>
   <time name="dav">   10.05   10.05</time>
   <time name="total">   10.60   10.60</time>
   <dipole>
    <v name="dipole">      0.00000000       0.00000000      -0.03697251 </v>
    <i name="Tr[quadrupol]">   -559.57176667 </i>
    <i name="Echarged">      0.00000000 </i>
    <i name="Edipol_quadrupol">      0.00000000 </i>
    <i name="Eion">      0.00000000 </i>
   </dipole>
   <energy>
    <i name="e_fr_energy">    -74.46359775 </i>
    <i name="e_wo_entrp">    -74.42554142 </i>
    <i name="e_0_energy">    -74.45408367 </i>
   </energy>
  </scstep>
  <scstep>
   <time name="dav">    6.25    6.25</time>
   <time name="total">    6.79    6.79</time>
   <dipole>
    <v name="dipole">      0.00000000       0.00000000      -0.03683016 </v>
    <i name="Tr[quadrupol]">   -559.57174339 </i>
    <i name="Echarged">      0.00000000 </i>
    <i name="Edipol_quadrupol">      0.00000000 </i>
    <i name="Eion">      0.00000000 </i>
   </dipole>
   <energy>
    <i name="e_fr_energy">    -74.46360397 </i>
    <i name="e_wo_entrp">    -74.42557897 </i>
    <i name="e_0_energy">    -74.45409772 </i>
   </energy>
  </scstep>
  <scstep>
   <time name="dav">    5.97    5.97</time>
   <time name="total">    6.51    6.52</time>
   <dipole>
    <v name="dipole">      0.00000000       0.00000000      -0.03667562 </v>
    <i name="Tr[quadrupol]">   -559.57167541 </i>
    <i name="Echarged">      0.00000000 </i>
    <i name="Edipol_quadrupol">      0.00000000 </i>
    <i name="Eion">      0.00000000 </i>
   </dipole>
   <energy>
    <i name="e_fr_energy">    -74.46361072 </i>
    <i name="e_wo_entrp">    -74.42562236 </i>
    <i name="e_0_energy">    -74.45411363 </i>
   </energy>
  </scstep>
  <scstep>
   <time name="dav">    5.80    5.81</time>
   <time name="total">    6.35    6.35</time>
   <dipole>
    <v name="dipole">      0.00000000       0.00000000      -0.03654662 </v>
    <i name="Tr[quadrupol]">   -559.57127110 </i>
    <i name="Echarged">      0.00000000 </i>
    <i name="Edipol_quadrupol">      0.00000000 </i>
    <i name="Eion">      0.00000000 </i>
   </dipole>
   <energy>
    <i name="e_fr_energy">    -74.46361358 </i>
    <i name="e_wo_entrp">    -74.42563721 </i>
    <i name="e_0_energy">    -74.45411948 </i>
   </energy>
  </scstep>
  <scstep>
   <time name="dav">    5.92    5.92</time>
   <time name="total">    6.46    6.46</time>
   <dipole>
    <v name="dipole">      0.00000000       0.00000000      -0.03660258 </v>
    <i name="Tr[quadrupol]">   -559.57046335 </i>
    <i name="Echarged">      0.00000000 </i>
    <i name="Edipol_quadrupol">      0.00000000 </i>
    <i name="Eion">      0.00000000 </i>
   </dipole>
   <energy>
    <i name="e_fr_energy">    -74.46360473 </i>
    <i name="e_wo_entrp">    -74.42555299 </i>
    <i name="e_0_energy">    -74.45409179 </i>
   </energy>
  </scstep>
  <scstep>
   <time name="dav">    8.16    8.16</time>
   <time name="total">    8.69    8.70</time>
   <dipole>
    <v name="dipole">      0.00000000       0.00000000      -0.03677497 </v>
    <i name="Tr[quadrupol]">   -559.57058022 </i>
    <i name="Echarged">      0.00000000 </i>
    <i name="Edipol_quadrupol">      0.00000000 </i>
    <i name="Eion">      0.00000000 </i>
   </dipole>
   <energy>
    <i name="e_fr_energy">    -74.46359660 </i>
    <i name="e_wo_entrp">    -74.42531654 </i>
    <i name="e_0_energy">    -74.45402658 </i>
   </energy>
  </scstep>
  <scstep>
   <time name="dav">    8.15    8.15</time>
   <time name="total">    8.69    8.69</time>
   <dipole>
    <v name="dipole">      0.00000000       0.00000000      -0.03653803 </v>
    <i name="Tr[quadrupol]">   -559.56430467 </i>
    <i name="Echarged">      0.00000000 </i>
    <i name="Edipol_quadrupol">      0.00000000 </i>
    <i name="Eion">      0.00000000 </i>
   </dipole>
   <energy>
    <i name="e_fr_energy">    -74.46359882 </i>
    <i name="e_wo_entrp">    -74.42529791 </i>
    <i name="e_0_energy">    -74.45402359 </i>
   </energy>
  </scstep>
  <scstep>
   <time name="dav">    5.94    5.95</time>
   <time name="total">    6.49    6.49</time>
   <dipole>
    <v name="dipole">      0.00000000       0.00000000      -0.03622309 </v>
    <i name="Tr[quadrupol]">   -559.56473789 </i>
    <i name="Echarged">      0.00000000 </i>
    <i name="Edipol_quadrupol">      0.00000000 </i>
    <i name="Eion">      0.00000000 </i>
   </dipole>
   <energy>
    <i name="e_fr_energy">    -74.46360074 </i>
    <i name="e_wo_entrp">    -74.42532902 </i>
    <i name="e_0_energy">    -74.45403281 </i>
   </energy>
  </scstep>
  <scstep>
   <time name="dav">    6.35    6.35</time>
   <time name="total">    6.89    6.89</time>
   <dipole>
    <v name="dipole">      0.00000000       0.00000000      -0.03585883 </v>
    <i name="Tr[quadrupol]">   -559.55927680 </i>
    <i name="Echarged">      0.00000000 </i>
    <i name="Edipol_quadrupol">      0.00000000 </i>
    <i name="Eion">      0.00000000 </i>
   </dipole>
   <energy>
    <i name="e_fr_energy">    -74.46360313 </i>
    <i name="e_wo_entrp">    -74.42531556 </i>
    <i name="e_0_energy">    -74.45403124 </i>
   </energy>
  </scstep>
  <scstep>
   <time name="dav">    6.07    6.07</time>
   <time name="total">    6.61    6.61</time>
   <dipole>
    <v name="dipole">      0.00000000       0.00000000      -0.03549552 </v>
    <i name="Tr[quadrupol]">   -559.52081445 </i>
    <i name="Echarged">      0.00000000 </i>
    <i name="Edipol_quadrupol">      0.00000000 </i>
    <i name="Eion">      0.00000000 </i>
   </dipole>
   <energy>
    <i name="e_fr_energy">    -74.46360483 </i>
    <i name="e_wo_entrp">    -74.42535592 </i>
    <i name="e_0_energy">    -74.45404260 </i>
   </energy>
  </scstep>
  <scstep>
   <time name="dav">    6.02    6.03</time>
   <time name="total">    6.06    6.06</time>
   <dipole>
    <v name="dipole">      0.00000000       0.00000000      -0.03533905 </v>
    <i name="Tr[quadrupol]">   -559.50175089 </i>
    <i name="Echarged">      0.00000000 </i>
    <i name="Edipol_quadrupol">      0.00000000 </i>
    <i name="Eion">      0.00000000 </i>
   </dipole>
   <energy>
    <i name="alphaZ">    548.11089089 </i>
    <i name="ewald">  30991.31294495 </i>
    <i name="hartreedc"> -42011.26387326 </i>
    <i name="XCdc">     48.81699347 </i>
    <i name="pawpsdc">   8491.29596053 </i>
    <i name="pawaedc">  -8128.37499489 </i>
    <i name="eentropy">     -0.03825023 </i>
    <i name="bandstr">   -565.50848359 </i>
    <i name="atom">  10551.18520662 </i>
    <i name="e_fr_energy">    -74.46360551 </i>
    <i name="e_wo_entrp">    -74.42535527 </i>
    <i name="e_0_energy">    -74.45404295 </i>
   </energy>
  </scstep>
  <structure>
   <crystal>
    <varray name="basis" >
     <v>       4.88428255       0.00000000       0.00000000 </v>
     <v>       2.44214127       4.22991277       0.00000000 </v>
     <v>       0.00000000       0.00000000      22.10741862 </v>
    </varray>
    <i name="volume">    456.74123834 </i>
    <varray name="rec_basis" >
     <v>       0.20473836      -0.11820575       0.00000000 </v>
     <v>      -0.00000000       0.23641149       0.00000000 </v>
     <v>       0.00000000       0.00000000       0.04523368 </v>
    </varray>
   </crystal>
   <varray name="positions" >
    <v>       0.30286415       0.49410690       0.00209390 </v>
    <v>       0.63619748       0.82744023       0.00209390 </v>
    <v>       0.96953081       0.16077357       0.00209390 </v>
    <v>       0.63619748       0.49410690       0.10624323 </v>
    <v>       0.96953081       0.82744023       0.10624323 </v>
    <v>       0.30286415       0.16077357       0.10624323 </v>
    <v>       0.30286415       0.49410690       0.32250707 </v>
    <v>       0.63619748       0.82744023       0.32250707 </v>
    <v>       0.96953081       0.16077357       0.32250707 </v>
    <v>       0.96953081       0.49410690       0.21495914 </v>
    <v>       0.30286415       0.82744023       0.21495914 </v>
    <v>       0.63619748       0.16077357       0.21495914 </v>
    <v>       0.76871130       0.99259116       0.43532491 </v>
    <v>       0.63852722       0.81279312       0.40965579 </v>
    <v>       0.99225302       0.83012516       0.44138925 </v>
   </varray>
  </structure>
  <varray name="forces" >
   <v>       0.00011909      -0.01285996      -0.17797038 </v>
   <v>      -0.01537713       0.00804235      -0.40401087 </v>
   <v>       0.00801309       0.01059405      -0.18288760 </v>
   <v>       0.03760587       0.06185297       0.28403506 </v>
   <v>      -0.06145572      -0.01643754       0.27067312 </v>
   <v>       0.02993662      -0.05433867       0.27382947 </v>
   <v>       0.05451982       0.01825184      -0.34719685 </v>
   <v>      -0.05092645      -0.01200028      -1.06711953 </v>
   <v>      -0.09343601      -0.03095720      -0.19564692 </v>
   <v>      -0.03114856       0.01429543      -0.07982442 </v>
   <v>       0.02513661       0.02795663      -0.09137439 </v>
   <v>      -0.00936337      -0.03667445      -0.13677688 </v>
   <v>       0.22329357       0.15457305       0.36464533 </v>
   <v>      -0.13862938      -0.11681533       1.49756494 </v>
   <v>       0.02171196      -0.01548289      -0.00794009 </v>
  </varray>
  <varray name="stress" >
   <v>     -33.55661020       0.24521237       1.61854808 </v>
   <v>       0.24521238     -33.23487196       0.47661562 </v>
   <v>       1.61854809       0.47661560      19.08939245 </v>
  </varray>
  <energy>
   <i name="e_fr_energy">    -74.46360551 </i>
   <i name="e_wo_entrp">    -74.45404295 </i>
   <i name="e_0_energy">     -0.03825023 </i>
  </energy>
  <time name="totalsc">  403.49  403.90</time>
 </calculation>
 <calculation>
  <scstep>
   <time name="dav">    7.65    7.66</time>
   <time name="total">    8.19    8.21</time>
   <dipole>
    <v name="dipole">      0.00000000       0.00000000      -0.03530297 </v>
    <i name="Tr[quadrupol]">   -559.57435574 </i>
    <i name="Echarged">      0.00000000 </i>
    <i name="Edipol_quadrupol">      0.00000000 </i>
    <i name="Eion">      0.00000000 </i>
   </dipole>
   <energy>
    <i name="alphaZ">    547.75874190 </i>
    <i name="ewald">  30993.95556393 </i>
    <i name="hartreedc"> -42014.84975753 </i>
    <i name="XCdc">     48.77278277 </i>
    <i name="pawpsdc">   8491.29683487 </i>
    <i name="pawaedc">  -8128.37588727 </i>
    <i name="eentropy">     -0.03849678 </i>
    <i name="bandstr">   -564.20540361 </i>
    <i name="atom">  10551.18520662 </i>
    <i name="e_fr_energy">    -74.50041510 </i>
    <i name="e_wo_entrp">    -74.46191832 </i>
    <i name="e_0_energy">    -74.49079090 </i>
   </energy>
  </scstep>
  <scstep>
   <time name="dav">   10.28   10.28</time>
   <time name="total">   10.83   10.83</time>
   <dipole>
    <v name="dipole">      0.00000000       0.00000000       0.01100738 </v>
    <i name="Tr[quadrupol]">   -559.60215061 </i>
    <i name="Echarged">      0.00000000 </i>
    <i name="Edipol_quadrupol">      0.00000000 </i>
    <i name="Eion">      0.00000000 </i>
   </dipole>
   <energy>
    <i name="e_fr_energy">    -74.61460027 </i>
    <i name="e_wo_entrp">    -74.59919668 </i>
    <i name="e_0_energy">    -74.61074937 </i>
   </energy>
  </scstep>
  <scstep>
   <time name="dav">   10.24   10.24</time>
   <time name="total">   10.78   10.79</time>
   <dipole>
    <v name="dipole">      0.00000000       0.00000000      -0.03511700 </v>
    <i name="Tr[quadrupol]">   -559.54325788 </i>
    <i name="Echarged">      0.00000000 </i>
    <i name="Edipol_quadrupol">      0.00000000 </i>
    <i name="Eion">      0.00000000 </i>
   </dipole>
   <energy>
    <i name="e_fr_energy">    -74.51856335 </i>
    <i name="e_wo_entrp">    -74.47907284 </i>
    <i name="e_0_energy">    -74.50869072 </i>
   </energy>
  </scstep>
  <scstep>
   <time name="dav">    9.83    9.84</time>
   <time name="total">   10.38   10.38</time>
   <dipole>
    <v name="dipole">      0.00000000       0.00000000      -0.02782868 </v>
    <i name="Tr[quadrupol]">   -559.55018110 </i>
    <i name="Echarged">      0.00000000 </i>
    <i name="Edipol_quadrupol">      0.00000000 </i>
    <i name="Eion">      0.00000000 </i>
   </dipole>
   <energy>
    <i name="e_fr_energy">    -74.51595513 </i>
    <i name="e_wo_entrp">    -74.47874439 </i>
    <i name="e_0_energy">    -74.50665244 </i>
   </energy>
  </scstep>
  <scstep>
   <time name="dav">   10.35   10.35</time>
   <time name="total">   10.89   10.89</time>
   <dipole>
    <v name="dipole">      0.00000000       0.00000000      -0.02742367 </v>
    <i name="Tr[quadrupol]">   -559.49592834 </i>
    <i name="Echarged">      0.00000000 </i>
    <i name="Edipol_quadrupol">      0.00000000 </i>
    <i name="Eion">      0.00000000 </i>
   </dipole>
   <energy>
    <i name="e_fr_energy">    -74.51589058 </i>
    <i name="e_wo_entrp">    -74.47792982 </i>
    <i name="e_0_energy">    -74.50640039 </i>
   </energy>
  </scstep>
  <scstep>
   <time name="dav">   10.43   10.43</time>
   <time name="total">   10.97   10.97</time>
   <dipole>
    <v name="dipole">      0.00000000       0.00000000      -0.02811739 </v>
    <i name="Tr[quadrupol]">   -559.52803095 </i>
    <i name="Echarged">      0.00000000 </i>
    <i name="Edipol_quadrupol">      0.00000000 </i>
    <i name="Eion">      0.00000000 </i>
   </dipole>
   <energy>
    <i name="e_fr_energy">    -74.51539146 </i>
    <i name="e_wo_entrp">    -74.47761097 </i>
    <i name="e_0_energy">    -74.50594634 </i>
   </energy>
  </scstep>
  <scstep>
   <time name="dav">   10.35   10.36</time>
   <time name="total">   10.89   10.90</time>
   <dipole>
    <v name="dipole">      0.00000000       0.00000000      -0.02910690 </v>
    <i name="Tr[quadrupol]">   -559.55000735 </i>
    <i name="Echarged">      0.00000000 </i>
    <i name="Edipol_quadrupol">      0.00000000 </i>
    <i name="Eion">      0.00000000 </i>
   </dipole>
   <energy>
    <i name="e_fr_energy">    -74.51519047 </i>
    <i name="e_wo_entrp">    -74.47714989 </i>
    <i name="e_0_energy">    -74.50568033 </i>
   </energy>
  </scstep>
  <scstep>
   <time name="dav">    9.84    9.85</time>
   <time name="total">   10.38   10.39</time>
   <dipole>
    <v name="dipole">      0.00000000       0.00000000      -0.02817640 </v>
    <i name="Tr[quadrupol]">   -559.56958669 </i>
    <i name="Echarged">      0.00000000 </i>
    <i name="Edipol_quadrupol">      0.00000000 </i>
    <i name="Eion">      0.00000000 </i>
   </dipole>
   <energy>
    <i name="e_fr_energy">    -74.51512741 </i>
    <i name="e_wo_entrp">    -74.47733385 </i>
    <i name="e_0_energy">    -74.50567902 </i>
   </energy>
  </scstep>
  <scstep>
   <time name="dav">    9.92    9.92</time>
   <time name="total">   10.46   10.47</time>
   <dipole>
    <v name="dipole">      0.00000000       0.00000000      -0.02788882 </v>
    <i name="Tr[quadrupol]">   -559.57394783 </i>
    <i name="Echarged">      0.00000000 </i>
    <i name="Edipol_quadrupol">      0.00000000 </i>
    <i name="Eion">      0.00000000 </i>
   </dipole>
   <energy>
    <i name="e_fr_energy">    -74.51512837 </i>
    <i name="e_wo_entrp">    -74.47742104 </i>
    <i name="e_0_energy">    -74.50570153 </i>
   </energy>
  </scstep>
  <scstep>
   <time name="dav">    9.15    9.15</time>
   <time name="total">    9.69    9.70</time>
   <dipole>
    <v name="dipole">      0.00000000       0.00000000      -0.02754727 </v>
    <i name="Tr[quadrupol]">   -559.57823657 </i>
    <i name="Echarged">      0.00000000 </i>
    <i name="Edipol_quadrupol">      0.00000000 </i>
    <i name="Eion">      0.00000000 </i>
   </dipole>
   <energy>
    <i name="e_fr_energy">    -74.51513163 </i>
    <i name="e_wo_entrp">    -74.47746068 </i>
    <i name="e_0_energy">    -74.50571389 </i>
   </energy>
  </scstep>
  <scstep>
   <time name="dav">    6.76    6.77</time>
   <time name="total">    6.80    6.80</time>
   <dipole>
    <v name="dipole">      0.00000000       0.00000000      -0.02742628 </v>
    <i name="Tr[quadrupol]">   -559.57751305 </i>
    <i name="Echarged">      0.00000000 </i>
    <i name="Edipol_quadrupol">      0.00000000 </i>
    <i name="Eion">      0.00000000 </i>
   </dipole>
   <energy>
    <i name="alphaZ">    549.17781996 </i>
    <i name="ewald">  30993.95556393 </i>
    <i name="hartreedc"> -42013.04050943 </i>
    <i name="XCdc">     48.74129167 </i>
    <i name="pawpsdc">   8486.82980675 </i>
    <i name="pawaedc">  -8123.85621291 </i>
    <i name="eentropy">     -0.03766944 </i>
    <i name="bandstr">   -567.47042959 </i>
    <i name="atom">  10551.18520662 </i>
    <i name="e_fr_energy">    -74.51513244 </i>
    <i name="e_wo_entrp">    -74.47746300 </i>
    <i name="e_0_energy">    -74.50571508 </i>
   </energy>
  </scstep>
  <structure>
   <crystal>
    <varray name="basis" >
     <v>       4.88428255       0.00000000       0.00000000 </v>
     <v>       2.44214127       4.22991277       0.00000000 </v>
     <v>       0.00000000       0.00000000      22.10741862 </v>
    </varray>
    <i name="volume">    456.74123834 </i>
    <varray name="rec_basis" >
     <v>       0.20473836      -0.11820575       0.00000000 </v>
     <v>      -0.00000000       0.23641149       0.00000000 </v>
     <v>       0.00000000       0.00000000       0.04523368 </v>
    </varray>
   </crystal>
   <varray name="positions" >
    <v>       0.30286415       0.49410690       0.00209390 </v>
    <v>       0.63619748       0.82744023       0.00209390 </v>
    <v>       0.96953081       0.16077357       0.00209390 </v>
    <v>       0.63619748       0.49410690       0.10624323 </v>
    <v>       0.96953081       0.82744023       0.10624323 </v>
    <v>       0.30286415       0.16077357       0.10624323 </v>
    <v>       0.30303791       0.49419016       0.32220401 </v>
    <v>       0.63602365       0.82738549       0.32157560 </v>
    <v>       0.96923227       0.16063234       0.32233629 </v>
    <v>       0.96937514       0.49417212       0.21488946 </v>
    <v>       0.30289969       0.82756777       0.21487938 </v>
    <v>       0.63624414       0.16060625       0.21483975 </v>
    <v>       0.76924091       0.99329633       0.43564320 </v>
    <v>       0.63824598       0.81226020       0.41096298 </v>
    <v>       0.99237411       0.83005452       0.44138232 </v>
   </varray>
  </structure>
  <varray name="forces" >
   <v>       0.00116424      -0.01329075      -0.17670895 </v>
   <v>      -0.01626168       0.00783146      -0.40443879 </v>
   <v>       0.00844539       0.01149931      -0.18273127 </v>
   <v>       0.03774000       0.06215854       0.27704987 </v>
   <v>      -0.05947334      -0.01900997       0.26132043 </v>
   <v>       0.02694946      -0.05366737       0.26590023 </v>
   <v>       0.03975388       0.01410482      -0.31437299 </v>
   <v>      -0.06526058      -0.04256501      -0.18918370 </v>
   <v>      -0.08255799      -0.02406443      -0.17456474 </v>
   <v>      -0.01849887      -0.00040893      -0.10202831 </v>
   <v>       0.00672039       0.02618765      -0.11553873 </v>
   <v>      -0.00167485      -0.02214054      -0.15123570 </v>
   <v>       0.07314107       0.06068478       0.27812668 </v>
   <v>      -0.04022430       0.01061654       0.70641463 </v>
   <v>       0.09003718      -0.01793610       0.02199134 </v>
  </varray>
  <varray name="stress" >
   <v>     -33.86119612      -0.13061603       1.57788463 </v>
   <v>      -0.13061602     -33.61670497       0.52157030 </v>
   <v>       1.57788461       0.52157028      14.36715559 </v>
  </varray>
  <energy>
   <i name="e_fr_energy">    -74.51513244 </i>
   <i name="e_wo_entrp">    -74.50571508 </i>
   <i name="e_0_energy">     -0.03766944 </i>
  </energy>
  <time name="totalsc">  115.28  115.34</time>
 </calculation>
 <calculation>
  <scstep>
   <time name="dav">   11.17   11.26</time>
   <time name="total">   11.72   11.81</time>
   <dipole>
    <v name="dipole">      0.00000000       0.00000000      -0.02736165 </v>
    <i name="Tr[quadrupol]">   -559.65518517 </i>
    <i name="Echarged">      0.00000000 </i>
    <i name="Edipol_quadrupol">      0.00000000 </i>
    <i name="Eion">      0.00000000 </i>
   </dipole>
   <energy>
    <i name="alphaZ">    549.17493515 </i>
    <i name="ewald">  30996.87662614 </i>
    <i name="hartreedc"> -42016.66948960 </i>
    <i name="XCdc">     48.70742152 </i>
    <i name="pawpsdc">   8486.82867637 </i>
    <i name="pawaedc">  -8123.85491593 </i>
    <i name="eentropy">     -0.03712372 </i>
    <i name="bandstr">   -566.72758271 </i>
    <i name="atom">  10551.18520662 </i>
    <i name="e_fr_energy">    -74.51624618 </i>
    <i name="e_wo_entrp">    -74.47912246 </i>
    <i name="e_0_energy">    -74.50696525 </i>
   </energy>
  </scstep>
  <scstep>
   <time name="dav">   10.18   10.19</time>
   <time name="total">   10.74   10.74</time>
   <dipole>
    <v name="dipole">      0.00000000       0.00000000       0.01263288 </v>
    <i name="Tr[quadrupol]">   -559.62199135 </i>
    <i name="Echarged">      0.00000000 </i>
    <i name="Edipol_quadrupol">      0.00000000 </i>
    <i name="Eion">      0.00000000 </i>
   </dipole>
   <energy>
    <i name="e_fr_energy">    -74.60184940 </i>
    <i name="e_wo_entrp">    -74.58393806 </i>
    <i name="e_0_energy">    -74.59737156 </i>
   </energy>
  </scstep>
  <scstep>
   <time name="dav">   10.30   10.31</time>
   <time name="total">   10.85   10.86</time>
   <dipole>
    <v name="dipole">      0.00000000       0.00000000      -0.02773269 </v>
    <i name="Tr[quadrupol]">   -559.58789775 </i>
    <i name="Echarged">      0.00000000 </i>
    <i name="Edipol_quadrupol">      0.00000000 </i>
    <i name="Eion">      0.00000000 </i>
   </dipole>
   <energy>
    <i name="e_fr_energy">    -74.53173308 </i>
    <i name="e_wo_entrp">    -74.49341632 </i>
    <i name="e_0_energy">    -74.52215389 </i>
   </energy>
  </scstep>
  <scstep>
   <time name="dav">    9.76    9.77</time>
   <time name="total">   10.31   10.32</time>
   <dipole>
    <v name="dipole">      0.00000000       0.00000000      -0.02051354 </v>
    <i name="Tr[quadrupol]">   -559.59308946 </i>
    <i name="Echarged">      0.00000000 </i>
    <i name="Edipol_quadrupol">      0.00000000 </i>
    <i name="Eion">      0.00000000 </i>
   </dipole>
   <energy>
    <i name="e_fr_energy">    -74.52921918 </i>
    <i name="e_wo_entrp">    -74.49284252 </i>
    <i name="e_0_energy">    -74.52012501 </i>
   </energy>
  </scstep>
  <scstep>
   <time name="dav">   10.39   10.39</time>
   <time name="total">   10.94   10.94</time>
   <dipole>
    <v name="dipole">      0.00000000       0.00000000      -0.02187596 </v>
    <i name="Tr[quadrupol]">   -559.57616048 </i>
    <i name="Echarged">      0.00000000 </i>
    <i name="Edipol_quadrupol">      0.00000000 </i>
    <i name="Eion">      0.00000000 </i>
   </dipole>
   <energy>
    <i name="e_fr_energy">    -74.52921368 </i>
    <i name="e_wo_entrp">    -74.49187893 </i>
    <i name="e_0_energy">    -74.51987999 </i>
   </energy>
  </scstep>
  <scstep>
   <time name="dav">   10.58   10.58</time>
   <time name="total">   11.12   11.13</time>
   <dipole>
    <v name="dipole">      0.00000000       0.00000000      -0.02090176 </v>
    <i name="Tr[quadrupol]">   -559.60853436 </i>
    <i name="Echarged">      0.00000000 </i>
    <i name="Edipol_quadrupol">      0.00000000 </i>
    <i name="Eion">      0.00000000 </i>
   </dipole>
   <energy>
    <i name="e_fr_energy">    -74.52880483 </i>
    <i name="e_wo_entrp">    -74.49195506 </i>
    <i name="e_0_energy">    -74.51959239 </i>
   </energy>
  </scstep>
  <scstep>
   <time name="dav">   10.26   10.28</time>
   <time name="total">   10.81   10.83</time>
   <dipole>
    <v name="dipole">      0.00000000       0.00000000      -0.02115076 </v>
    <i name="Tr[quadrupol]">   -559.60305529 </i>
    <i name="Echarged">      0.00000000 </i>
    <i name="Edipol_quadrupol">      0.00000000 </i>
    <i name="Eion">      0.00000000 </i>
   </dipole>
   <energy>
    <i name="e_fr_energy">    -74.52859026 </i>
    <i name="e_wo_entrp">    -74.49164200 </i>
    <i name="e_0_energy">    -74.51935319 </i>
   </energy>
  </scstep>
  <scstep>
   <time name="dav">    9.89    9.89</time>
   <time name="total">   10.44   10.44</time>
   <dipole>
    <v name="dipole">      0.00000000       0.00000000      -0.02029638 </v>
    <i name="Tr[quadrupol]">   -559.60059671 </i>
    <i name="Echarged">      0.00000000 </i>
    <i name="Edipol_quadrupol">      0.00000000 </i>
    <i name="Eion">      0.00000000 </i>
   </dipole>
   <energy>
    <i name="e_fr_energy">    -74.52857221 </i>
    <i name="e_wo_entrp">    -74.49172007 </i>
    <i name="e_0_energy">    -74.51935917 </i>
   </energy>
  </scstep>
  <scstep>
   <time name="dav">    9.68    9.69</time>
   <time name="total">   10.23   10.24</time>
   <dipole>
    <v name="dipole">      0.00000000       0.00000000      -0.02017272 </v>
    <i name="Tr[quadrupol]">   -559.59998516 </i>
    <i name="Echarged">      0.00000000 </i>
    <i name="Edipol_quadrupol">      0.00000000 </i>
    <i name="Eion">      0.00000000 </i>
   </dipole>
   <energy>
    <i name="e_fr_energy">    -74.52857421 </i>
    <i name="e_wo_entrp">    -74.49171082 </i>
    <i name="e_0_energy">    -74.51935837 </i>
   </energy>
  </scstep>
  <scstep>
   <time name="dav">    9.13    9.13</time>
   <time name="total">    9.67    9.68</time>
   <dipole>
    <v name="dipole">      0.00000000       0.00000000      -0.01993898 </v>
    <i name="Tr[quadrupol]">   -559.59874548 </i>
    <i name="Echarged">      0.00000000 </i>
    <i name="Edipol_quadrupol">      0.00000000 </i>
    <i name="Eion">      0.00000000 </i>
   </dipole>
   <energy>
    <i name="e_fr_energy">    -74.52857778 </i>
    <i name="e_wo_entrp">    -74.49170598 </i>
    <i name="e_0_energy">    -74.51935983 </i>
   </energy>
  </scstep>
  <scstep>
   <time name="dav">    6.45    6.45</time>
   <time name="total">    7.00    7.00</time>
   <dipole>
    <v name="dipole">      0.00000000       0.00000000      -0.01978362 </v>
    <i name="Tr[quadrupol]">   -559.59796668 </i>
    <i name="Echarged">      0.00000000 </i>
    <i name="Edipol_quadrupol">      0.00000000 </i>
    <i name="Eion">      0.00000000 </i>
   </dipole>
   <energy>
    <i name="e_fr_energy">    -74.52857955 </i>
    <i name="e_wo_entrp">    -74.49170338 </i>
    <i name="e_0_energy">    -74.51936050 </i>
   </energy>
  </scstep>
  <scstep>
   <time name="dav">    6.20    6.21</time>
   <time name="total">    6.75    6.75</time>
   <dipole>
    <v name="dipole">      0.00000000       0.00000000      -0.01959929 </v>
    <i name="Tr[quadrupol]">   -559.59372863 </i>
    <i name="Echarged">      0.00000000 </i>
    <i name="Edipol_quadrupol">      0.00000000 </i>
    <i name="Eion">      0.00000000 </i>
   </dipole>
   <energy>
    <i name="e_fr_energy">    -74.52858236 </i>
    <i name="e_wo_entrp">    -74.49171393 </i>
    <i name="e_0_energy">    -74.51936525 </i>
   </energy>
  </scstep>
  <scstep>
   <time name="dav">    6.04    6.05</time>
   <time name="total">    6.59    6.60</time>
   <dipole>
    <v name="dipole">      0.00000000       0.00000000      -0.01949088 </v>
    <i name="Tr[quadrupol]">   -559.58976238 </i>
    <i name="Echarged">      0.00000000 </i>
    <i name="Edipol_quadrupol">      0.00000000 </i>
    <i name="Eion">      0.00000000 </i>
   </dipole>
   <energy>
    <i name="e_fr_energy">    -74.52858395 </i>
    <i name="e_wo_entrp">    -74.49171333 </i>
    <i name="e_0_energy">    -74.51936629 </i>
   </energy>
  </scstep>
  <scstep>
   <time name="dav">    6.03    6.03</time>
   <time name="total">    6.58    6.58</time>
   <dipole>
    <v name="dipole">      0.00000000       0.00000000      -0.01936842 </v>
    <i name="Tr[quadrupol]">   -559.58900883 </i>
    <i name="Echarged">      0.00000000 </i>
    <i name="Edipol_quadrupol">      0.00000000 </i>
    <i name="Eion">      0.00000000 </i>
   </dipole>
   <energy>
    <i name="e_fr_energy">    -74.52858562 </i>
    <i name="e_wo_entrp">    -74.49170771 </i>
    <i name="e_0_energy">    -74.51936614 </i>
   </energy>
  </scstep>
  <scstep>
   <time name="dav">    6.03    6.03</time>
   <time name="total">    6.07    6.07</time>
   <dipole>
    <v name="dipole">      0.00000000       0.00000000      -0.01928335 </v>
    <i name="Tr[quadrupol]">   -559.58858605 </i>
    <i name="Echarged">      0.00000000 </i>
    <i name="Edipol_quadrupol">      0.00000000 </i>
    <i name="Eion">      0.00000000 </i>
   </dipole>
   <energy>
    <i name="alphaZ">    548.72635462 </i>
    <i name="ewald">  30996.87662614 </i>
    <i name="hartreedc"> -42014.93171625 </i>
    <i name="XCdc">     48.67927885 </i>
    <i name="pawpsdc">   8483.70047708 </i>
    <i name="pawaedc">  -8120.69148463 </i>
    <i name="eentropy">     -0.03688038 </i>
    <i name="bandstr">   -568.03644861 </i>
    <i name="atom">  10551.18520662 </i>
    <i name="e_fr_energy">    -74.52858658 </i>
    <i name="e_wo_entrp">    -74.49170620 </i>
    <i name="e_0_energy">    -74.51936648 </i>
   </energy>
  </scstep>
  <structure>
   <crystal>
    <varray name="basis" >
     <v>       4.88428255       0.00000000       0.00000000 </v>
     <v>       2.44214127       4.22991277       0.00000000 </v>
     <v>       0.00000000       0.00000000      22.10741862 </v>
    </varray>
    <i name="volume">    456.74123834 </i>
    <varray name="rec_basis" >
     <v>       0.20473836      -0.11820575       0.00000000 </v>
     <v>      -0.00000000       0.23641149       0.00000000 </v>
     <v>       0.00000000       0.00000000       0.04523368 </v>
    </varray>
   </crystal>
   <varray name="positions" >
    <v>       0.30286415       0.49410690       0.00209390 </v>
    <v>       0.63619748       0.82744023       0.00209390 </v>
    <v>       0.96953081       0.16077357       0.00209390 </v>
    <v>       0.63619748       0.49410690       0.10624323 </v>
    <v>       0.96953081       0.82744023       0.10624323 </v>
    <v>       0.30286415       0.16077357       0.10624323 </v>
    <v>       0.30319656       0.49426619       0.32192731 </v>
    <v>       0.63586494       0.82733550       0.32072516 </v>
    <v>       0.96895970       0.16050339       0.32218037 </v>
    <v>       0.96923301       0.49423166       0.21482585 </v>
    <v>       0.30293214       0.82768422       0.21480656 </v>
    <v>       0.63628674       0.16045350       0.21473075 </v>
    <v>       0.76972446       0.99394016       0.43593381 </v>
    <v>       0.63798919       0.81177364       0.41215647 </v>
    <v>       0.99248468       0.82999003       0.44137599 </v>
   </varray>
  </structure>
  <varray name="forces" >
   <v>       0.00213287      -0.01359491      -0.17585210 </v>
   <v>      -0.01715690       0.00786439      -0.40262183 </v>
   <v>       0.00887037       0.01246354      -0.18215440 </v>
   <v>       0.03776173       0.06218396       0.26974268 </v>
   <v>      -0.05717262      -0.02107024       0.25196055 </v>
   <v>       0.02379956      -0.05267376       0.25775076 </v>
   <v>       0.02637046       0.01026622      -0.28551802 </v>
   <v>      -0.07820369      -0.06520155       0.44382040 </v>
   <v>      -0.07333291      -0.01843387      -0.15682766 </v>
   <v>      -0.00582473      -0.01583037      -0.12534489 </v>
   <v>      -0.01279434       0.02490161      -0.14129023 </v>
   <v>       0.00660205      -0.00676757      -0.16747041 </v>
   <v>      -0.05678381      -0.01974651       0.21092013 </v>
   <v>       0.04373043       0.11645407       0.15480631 </v>
   <v>       0.15200152      -0.02081498       0.04807871 </v>
  </varray>
  <varray name="stress" >
   <v>     -34.12648679      -0.46330803       1.57021858 </v>
   <v>      -0.46330799     -33.95549011       0.56024980 </v>
   <v>       1.57021856       0.56024982      11.06731091 </v>
  </varray>
  <energy>
   <i name="e_fr_energy">    -74.52858658 </i>
   <i name="e_wo_entrp">    -74.51936648 </i>
   <i name="e_0_energy">     -0.03688038 </i>
  </energy>
  <time name="totalsc">  144.83  145.01</time>
 </calculation>
 <calculation>
  <scstep>
   <time name="dav">    7.59    7.60</time>
[...]
       <r>   -5.4744    1.0000 </r>
       <r>   -5.4594    1.0000 </r>
       <r>   -5.1274    1.0000 </r>
       <r>   -5.1101    1.0000 </r>
       <r>   -5.0743    1.0000 </r>
       <r>   -4.9087    1.0000 </r>
       <r>   -4.8876    1.0000 </r>
       <r>   -4.6710    1.0000 </r>
       <r>   -4.5832    1.0000 </r>
       <r>   -4.5283    1.0000 </r>
       <r>   -4.3224    1.0000 </r>
       <r>   -4.2952    1.0000 </r>
       <r>   -4.2361    1.0000 </r>
       <r>   -4.1656    1.0000 </r>
       <r>   -4.1454    1.0000 </r>
       <r>   -3.9615    1.0000 </r>
       <r>   -3.8211    1.0000 </r>
       <r>   -3.7954    1.0000 </r>
       <r>   -3.6147    1.0000 </r>
       <r>   -3.5732    1.0000 </r>
       <r>   -3.5001    1.0000 </r>
       <r>   -3.4202    1.0000 </r>
       <r>   -3.3822    1.0000 </r>
       <r>   -3.3282    1.0000 </r>
       <r>   -3.1910    1.0000 </r>
       <r>   -3.1332    1.0000 </r>
       <r>   -3.0668    1.0000 </r>
       <r>   -2.9856    1.0000 </r>
       <r>   -2.7545    1.0000 </r>
       <r>   -2.6219    1.0000 </r>
       <r>   -2.5730    1.0000 </r>
       <r>   -2.4832    1.0000 </r>
       <r>   -2.4523    1.0000 </r>
       <r>   -2.2886    1.0000 </r>
       <r>   -2.0627    1.0000 </r>
       <r>   -1.9049    1.0000 </r>
       <r>   -1.6742    1.0000 </r>
       <r>   -1.5717    1.0000 </r>
       <r>   -1.5182    1.0000 </r>
       <r>   -1.4261    1.0000 </r>
       <r>   -1.4127    1.0000 </r>
       <r>   -1.3270    1.0000 </r>
       <r>   -1.2327    1.0000 </r>
       <r>   -1.1505    0.9999 </r>
       <r>   -1.1084    0.9998 </r>
       <r>   -0.9076    0.9952 </r>
       <r>   -0.8691    0.9955 </r>
       <r>   -0.8124    1.0032 </r>
       <r>   -0.7953    1.0081 </r>
       <r>   -0.7691    1.0181 </r>
       <r>   -0.6800    1.0516 </r>
       <r>   -0.5308    0.7231 </r>
       <r>   -0.2680   -0.0464 </r>
       <r>   -0.0684    0.0048 </r>
       <r>   -0.0458    0.0042 </r>
       <r>   -0.0172    0.0031 </r>
       <r>    0.0662    0.0008 </r>
       <r>    0.3851    0.0000 </r>
       <r>    0.5204    0.0000 </r>
       <r>    1.6231    0.0000 </r>
       <r>    2.2078    0.0000 </r>
       <r>    2.7405    0.0000 </r>
       <r>    3.4614    0.0000 </r>
       <r>    4.0092    0.0000 </r>
       <r>    4.8923    0.0000 </r>
       <r>    5.1626    0.0000 </r>
      </set>
     </set>
    </set>
   </array>
  </eigenvalues>
  <separator name="orbital magnetization" >
   <v name="MAGDIPOLOUT">      0.00000000      0.00000000      0.00000000</v>
  </separator>
  <dos>
   <i name="efermi">     -0.48699225 </i>
   <total>
    <array>
     <dimension dim="1">gridpoints</dimension>
     <dimension dim="2">spin</dimension>
     <field>energy</field>
     <field>total</field>
     <field>integrated</field>
     <set>
      <set comment="spin 1">
       <r>   -25.5045     0.0000     0.0000 </r>
       <r>   -25.3940     0.0000     0.0000 </r>
       <r>   -25.2834     0.0000     0.0000 </r>
       <r>   -25.1728     0.0000     0.0000 </r>
       <r>   -25.0622     0.0000     0.0000 </r>
       <r>   -24.9517     0.0000     0.0000 </r>
       <r>   -24.8411     0.0000     0.0000 </r>
       <r>   -24.7305     0.0000     0.0000 </r>
       <r>   -24.6200     0.0000     0.0000 </r>
       <r>   -24.5094     0.0000     0.0000 </r>
       <r>   -24.3988     0.0000     0.0000 </r>
       <r>   -24.2882     0.0000     0.0000 </r>
       <r>   -24.1777     0.0007     0.0001 </r>
       <r>   -24.0671     0.0102     0.0012 </r>
       <r>   -23.9565     0.0540     0.0072 </r>
       <r>   -23.8460    -0.0437     0.0023 </r>
       <r>   -23.7354    -0.7323    -0.0786 </r>
       <r>   -23.6248     0.7330     0.0024 </r>
       <r>   -23.5143     7.5539     0.8377 </r>
       <r>   -23.4037     9.1465     1.8490 </r>
       <r>   -23.2931     2.2713     2.1001 </r>
       <r>   -23.1825    -0.8037     2.0113 </r>
       <r>   -23.0720    -0.1852     1.9908 </r>
       <r>   -22.9614     0.0634     1.9978 </r>
       <r>   -22.8508     0.0183     1.9998 </r>
       <r>   -22.7403     0.0016     2.0000 </r>
       <r>   -22.6297     0.0001     2.0000 </r>
       <r>   -22.5191     0.0000     2.0000 </r>
       <r>   -22.4085     0.0000     2.0000 </r>
       <r>   -22.2980     0.0000     2.0000 </r>
       <r>   -22.1874     0.0000     2.0000 </r>
       <r>   -22.0768     0.0000     2.0000 </r>
       <r>   -21.9663     0.0000     2.0000 </r>
       <r>   -21.8557     0.0000     2.0000 </r>
       <r>   -21.7451     0.0000     2.0000 </r>
       <r>   -21.6346     0.0000     2.0000 </r>
       <r>   -21.5240     0.0000     2.0000 </r>
       <r>   -21.4134     0.0000     2.0000 </r>
       <r>   -21.3028     0.0000     2.0000 </r>
       <r>   -21.1923     0.0000     2.0000 </r>
       <r>   -21.0817     0.0000     2.0000 </r>
       <r>   -20.9711     0.0000     2.0000 </r>
       <r>   -20.8606     0.0000     2.0000 </r>
       <r>   -20.7500     0.0000     2.0000 </r>
       <r>   -20.6394     0.0000     2.0000 </r>
       <r>   -20.5289     0.0000     2.0000 </r>
       <r>   -20.4183     0.0000     2.0000 </r>
       <r>   -20.3077     0.0000     2.0000 </r>
       <r>   -20.1971     0.0000     2.0000 </r>
       <r>   -20.0866     0.0000     2.0000 </r>
       <r>   -19.9760     0.0000     2.0000 </r>
       <r>   -19.8654     0.0000     2.0000 </r>
       <r>   -19.7549     0.0000     2.0000 </r>
       <r>   -19.6443     0.0000     2.0000 </r>
       <r>   -19.5337     0.0000     2.0000 </r>
       <r>   -19.4231     0.0000     2.0000 </r>
       <r>   -19.3126     0.0000     2.0000 </r>
       <r>   -19.2020     0.0000     2.0000 </r>
       <r>   -19.0914     0.0000     2.0000 </r>
       <r>   -18.9809     0.0000     2.0000 </r>
       <r>   -18.8703     0.0000     2.0000 </r>
       <r>   -18.7597     0.0000     2.0000 </r>
       <r>   -18.6492     0.0000     2.0000 </r>
       <r>   -18.5386     0.0000     2.0000 </r>
       <r>   -18.4280     0.0000     2.0000 </r>
       <r>   -18.3174     0.0000     2.0000 </r>
       <r>   -18.2069     0.0000     2.0000 </r>
       <r>   -18.0963     0.0000     2.0000 </r>
       <r>   -17.9857     0.0000     2.0000 </r>
       <r>   -17.8752     0.0000     2.0000 </r>
       <r>   -17.7646     0.0000     2.0000 </r>
       <r>   -17.6540     0.0000     2.0000 </r>
       <r>   -17.5435     0.0005     2.0001 </r>
       <r>   -17.4329     0.0076     2.0009 </r>
       <r>   -17.3223     0.0464     2.0060 </r>
       <r>   -17.2117    -0.0021     2.0058 </r>
       <r>   -17.1012    -0.6312     1.9360 </r>
       <r>   -16.9906     0.2093     1.9591 </r>
       <r>   -16.8800     6.5327     2.6815 </r>
       <r>   -16.7695     9.5863     3.7414 </r>
       <r>   -16.6589     3.2482     4.1006 </r>
       <r>   -16.5483    -0.7112     4.0219 </r>
       <r>   -16.4377    -0.2853     3.9904 </r>
       <r>   -16.3272     0.0601     3.9970 </r>
       <r>   -16.2166     0.0242     3.9997 </r>
       <r>   -16.1060     0.0024     4.0000 </r>
       <r>   -15.9955     0.0001     4.0000 </r>
       <r>   -15.8849     0.0000     4.0000 </r>
       <r>   -15.7743     0.0000     4.0000 </r>
       <r>   -15.6638     0.0000     4.0000 </r>
       <r>   -15.5532     0.0000     4.0000 </r>
       <r>   -15.4426     0.0000     4.0000 </r>
       <r>   -15.3320     0.0000     4.0000 </r>
       <r>   -15.2215     0.0000     4.0000 </r>
       <r>   -15.1109     0.0000     4.0000 </r>
       <r>   -15.0003     0.0000     4.0000 </r>
       <r>   -14.8898     0.0000     4.0000 </r>
       <r>   -14.7792     0.0000     4.0000 </r>
       <r>   -14.6686     0.0000     4.0000 </r>
       <r>   -14.5580     0.0000     4.0000 </r>
       <r>   -14.4475     0.0000     4.0000 </r>
       <r>   -14.3369     0.0000     4.0000 </r>
       <r>   -14.2263     0.0000     4.0000 </r>
       <r>   -14.1158     0.0000     4.0000 </r>
       <r>   -14.0052     0.0000     4.0000 </r>
       <r>   -13.8946     0.0000     4.0000 </r>
       <r>   -13.7841     0.0000     4.0000 </r>
       <r>   -13.6735     0.0000     4.0000 </r>
       <r>   -13.5629     0.0000     4.0000 </r>
       <r>   -13.4523     0.0000     4.0000 </r>
       <r>   -13.3418     0.0000     4.0000 </r>
       <r>   -13.2312     0.0000     4.0000 </r>
       <r>   -13.1206     0.0000     4.0000 </r>
       <r>   -13.0101     0.0000     4.0000 </r>
       <r>   -12.8995     0.0000     4.0000 </r>
       <r>   -12.7889     0.0000     4.0000 </r>
       <r>   -12.6784     0.0000     4.0000 </r>
       <r>   -12.5678     0.0000     4.0000 </r>
       <r>   -12.4572     0.0000     4.0000 </r>
       <r>   -12.3466     0.0000     4.0000 </r>
       <r>   -12.2361     0.0000     4.0000 </r>
       <r>   -12.1255     0.0000     4.0000 </r>
       <r>   -12.0149     0.0000     4.0000 </r>
       <r>   -11.9044     0.0000     4.0000 </r>
       <r>   -11.7938     0.0000     4.0000 </r>
       <r>   -11.6832     0.0000     4.0000 </r>
       <r>   -11.5726     0.0000     4.0000 </r>
       <r>   -11.4621     0.0000     4.0000 </r>
       <r>   -11.3515     0.0000     4.0000 </r>
       <r>   -11.2409     0.0000     4.0000 </r>
       <r>   -11.1304     0.0000     4.0000 </r>
       <r>   -11.0198     0.0000     4.0000 </r>
       <r>   -10.9092     0.0000     4.0000 </r>
       <r>   -10.7987     0.0000     4.0000 </r>
       <r>   -10.6881     0.0000     4.0000 </r>
       <r>   -10.5775     0.0000     4.0000 </r>
       <r>   -10.4669     0.0000     4.0000 </r>
       <r>   -10.3564     0.0000     4.0000 </r>
       <r>   -10.2458     0.0000     4.0000 </r>
       <r>   -10.1352     0.0000     4.0000 </r>
       <r>   -10.0247     0.0000     4.0000 </r>
       <r>    -9.9141     0.0000     4.0000 </r>
       <r>    -9.8035     0.0000     4.0000 </r>
       <r>    -9.6930     0.0000     4.0000 </r>
       <r>    -9.5824     0.0000     4.0000 </r>
       <r>    -9.4718     0.0004     4.0000 </r>
       <r>    -9.3612     0.0056     4.0007 </r>
       <r>    -9.2507     0.0324     4.0043 </r>
       <r>    -9.1401     0.0183     4.0063 </r>
       <r>    -9.0295    -0.3928     3.9628 </r>
       <r>    -8.9190    -0.1851     3.9424 </r>
       <r>    -8.8084     4.5411     4.4445 </r>
       <r>    -8.6978     9.7281     5.5201 </r>
       <r>    -8.5872     6.1895     6.2045 </r>
       <r>    -8.4767     0.9348     6.3079 </r>
       <r>    -8.3661     0.2493     6.3354 </r>
       <r>    -8.2555     0.5727     6.3988 </r>
       <r>    -8.1450     0.5630     6.4610 </r>
       <r>    -8.0344     0.9568     6.5668 </r>
       <r>    -7.9238     1.0067     6.6781 </r>
       <r>    -7.8133     0.7343     6.7593 </r>
       <r>    -7.7027     0.9785     6.8675 </r>
       <r>    -7.5921     1.3216     7.0136 </r>
       <r>    -7.4815     1.7181     7.2036 </r>
       <r>    -7.3710     2.0549     7.4308 </r>
       <r>    -7.2604     1.8256     7.6327 </r>
       <r>    -7.1498     1.7433     7.8254 </r>
       <r>    -7.0393     2.0537     8.0525 </r>
       <r>    -6.9287     4.0070     8.4956 </r>
       <r>    -6.8181     7.3303     9.3061 </r>
       <r>    -6.7076     7.1308    10.0945 </r>
       <r>    -6.5970     6.9232    10.8600 </r>
       <r>    -6.4864    10.6008    12.0322 </r>
       <r>    -6.3758    13.0457    13.4746 </r>
       <r>    -6.2653    14.1976    15.0445 </r>
       <r>    -6.1547    17.2737    16.9544 </r>
       <r>    -6.0441    20.5577    19.2275 </r>
       <r>    -5.9336    22.7867    21.7470 </r>
       <r>    -5.8230    23.4012    24.3345 </r>
       <r>    -5.7124    23.2705    26.9075 </r>
       <r>    -5.6018    23.7915    29.5382 </r>
       <r>    -5.4913    21.6632    31.9335 </r>
       <r>    -5.3807    16.3266    33.7387 </r>
       <r>    -5.2701    12.9922    35.1753 </r>
       <r>    -5.1596    14.0654    36.7305 </r>
       <r>    -5.0490    17.8834    38.7079 </r>
       <r>    -4.9384    21.3552    41.0691 </r>
       <r>    -4.8279    21.0331    43.3948 </r>
       <r>    -4.7173    20.5842    45.6708 </r>
       <r>    -4.6067    23.8176    48.3043 </r>
       <r>    -4.4961    24.9780    51.0661 </r>
       <r>    -4.3856    21.5037    53.4438 </r>
       <r>    -4.2750    21.1763    55.7852 </r>
       <r>    -4.1644    21.5538    58.1685 </r>
       <r>    -4.0539    20.7895    60.4672 </r>
       <r>    -3.9433    21.2613    62.8180 </r>
       <r>    -3.8327    20.4983    65.0845 </r>
       <r>    -3.7221    20.0251    67.2987 </r>
       <r>    -3.6116    23.0033    69.8422 </r>
       <r>    -3.5010    27.3294    72.8640 </r>
       <r>    -3.3904    28.9543    76.0655 </r>
       <r>    -3.2799    25.8527    78.9241 </r>
       <r>    -3.1693    20.7504    81.2185 </r>
       <r>    -3.0587    18.6706    83.2829 </r>
       <r>    -2.9482    20.8218    85.5852 </r>
       <r>    -2.8376    21.8001    87.9956 </r>
       <r>    -2.7270    21.3046    90.3513 </r>
       <r>    -2.6164    22.6761    92.8586 </r>
       <r>    -2.5059    25.2865    95.6545 </r>
       <r>    -2.3953    24.4078    98.3533 </r>
       <r>    -2.2847    19.7727   100.5395 </r>
       <r>    -2.1742    16.9291   102.4114 </r>
       <r>    -2.0636    17.3160   104.3260 </r>
       <r>    -1.9530    16.7841   106.1819 </r>
       <r>    -1.8425    13.9938   107.7292 </r>
       <r>    -1.7319    14.9581   109.3831 </r>
       <r>    -1.6213    21.2567   111.7335 </r>
       <r>    -1.5107    24.7545   114.4706 </r>
       <r>    -1.4002    22.4213   116.9497 </r>
       <r>    -1.2896    21.4176   119.3179 </r>
       <r>    -1.1790    23.8374   121.9536 </r>
       <r>    -1.0685    23.1074   124.5086 </r>
       <r>    -0.9579    20.6204   126.7886 </r>
       <r>    -0.8473    20.0086   129.0009 </r>
       <r>    -0.7367    17.2292   130.9060 </r>
       <r>    -0.6262    17.5252   132.8438 </r>
       <r>    -0.5156    22.6957   135.3532 </r>
       <r>    -0.4050    19.4774   137.5068 </r>
       <r>    -0.2945    10.0072   138.6133 </r>
       <r>    -0.1839     7.3010   139.4206 </r>
       <r>    -0.0733    10.4983   140.5814 </r>
       <r>     0.0372    10.7993   141.7755 </r>
       <r>     0.1478     5.8104   142.4180 </r>
       <r>     0.2584     1.8750   142.6253 </r>
       <r>     0.3690     2.5643   142.9088 </r>
       <r>     0.4795     4.1457   143.3672 </r>
       <r>     0.5901     3.8944   143.7978 </r>
       <r>     0.7007     3.6999   144.2069 </r>
       <r>     0.8112     3.6666   144.6123 </r>
       <r>     0.9218     4.2743   145.0849 </r>
       <r>     1.0324     4.5183   145.5845 </r>
       <r>     1.1429     3.0794   145.9250 </r>
       <r>     1.2535     3.3958   146.3005 </r>
       <r>     1.3641     4.4428   146.7917 </r>
       <r>     1.4747     4.7157   147.3131 </r>
       <r>     1.5852     4.7174   147.8347 </r>
       <r>     1.6958     3.4696   148.2184 </r>
       <r>     1.8064     3.0748   148.5584 </r>
       <r>     1.9169     4.1091   149.0127 </r>
       <r>     2.0275     4.3984   149.4990 </r>
       <r>     2.1381     4.3535   149.9804 </r>
       <r>     2.2487     4.7835   150.5093 </r>
       <r>     2.3592     4.9087   151.0521 </r>
       <r>     2.4698     3.9987   151.4942 </r>
       <r>     2.5804     2.8588   151.8103 </r>
       <r>     2.6909     2.7744   152.1171 </r>
       <r>     2.8015     3.4956   152.5036 </r>
       <r>     2.9121     3.6895   152.9115 </r>
       <r>     3.0226     3.6990   153.3205 </r>
       <r>     3.1332     4.3580   153.8024 </r>
       <r>     3.2438     4.5549   154.3061 </r>
       <r>     3.3544     4.5269   154.8066 </r>
       <r>     3.4649     4.8189   155.3394 </r>
       <r>     3.5755     4.4442   155.8308 </r>
       <r>     3.6861     3.9344   156.2658 </r>
       <r>     3.7966     4.4841   156.7616 </r>
       <r>     3.9072     5.6724   157.3888 </r>
       <r>     4.0178     6.0647   158.0594 </r>
       <r>     4.1283     4.7673   158.5866 </r>
       <r>     4.2389     3.4434   158.9673 </r>
       <r>     4.3495     3.9047   159.3990 </r>
       <r>     4.4601     4.5147   159.8982 </r>
       <r>     4.5706     4.0007   160.3406 </r>
       <r>     4.6812     3.4183   160.7185 </r>
       <r>     4.7918     3.6154   161.1183 </r>
       <r>     4.9023     3.6248   161.5191 </r>
       <r>     5.0129     3.6141   161.9187 </r>
       <r>     5.1235     5.1371   162.4867 </r>
       <r>     5.2341     5.1815   163.0597 </r>
       <r>     5.3446     3.3174   163.4265 </r>
       <r>     5.4552     2.2075   163.6705 </r>
       <r>     5.5658     1.7941   163.8689 </r>
       <r>     5.6763     1.0440   163.9844 </r>
       <r>     5.7869     0.2056   164.0071 </r>
       <r>     5.8975    -0.0571   164.0008 </r>
       <r>     6.0080    -0.0161   163.9990 </r>
       <r>     6.1186     0.0061   163.9997 </r>
       <r>     6.2292     0.0026   164.0000 </r>
       <r>     6.3398     0.0003   164.0000 </r>
       <r>     6.4503     0.0000   164.0000 </r>
       <r>     6.5609     0.0000   164.0000 </r>
       <r>     6.6715     0.0000   164.0000 </r>
       <r>     6.7820     0.0000   164.0000 </r>
       <r>     6.8926     0.0000   164.0000 </r>
       <r>     7.0032     0.0000   164.0000 </r>
       <r>     7.1138     0.0000   164.0000 </r>
       <r>     7.2243     0.0000   164.0000 </r>
       <r>     7.3349     0.0000   164.0000 </r>
       <r>     7.4455     0.0000   164.0000 </r>
       <r>     7.5560     0.0000   164.0000 </r>
       <r>     7.6666     0.0000   164.0000 </r>
      </set>
     </set>
    </array>
   </total>
  </dos>
 </calculation>
 <structure name="finalpos" >
  <crystal>
   <varray name="basis" >
    <v>       4.88428255       0.00000000       0.00000000 </v>
    <v>       2.44214127       4.22991277       0.00000000 </v>
    <v>       0.00000000       0.00000000      22.10741862 </v>
   </varray>
   <i name="volume">    456.74123834 </i>
   <varray name="rec_basis" >
    <v>       0.20473836      -0.11820575       0.00000000 </v>
    <v>      -0.00000000       0.23641149       0.00000000 </v>
    <v>       0.00000000       0.00000000       0.04523368 </v>
   </varray>
  </crystal>
  <varray name="positions" >
   <v>       0.30286415       0.49410690       0.00209390 </v>
   <v>       0.63619748       0.82744023       0.00209390 </v>
   <v>       0.96953081       0.16077357       0.00209390 </v>
   <v>       0.63619748       0.49410690       0.10624323 </v>
   <v>       0.96953081       0.82744023       0.10624323 </v>
   <v>       0.30286415       0.16077357       0.10624323 </v>
   <v>       0.30206844       0.49549562       0.32098590 </v>
   <v>       0.63454089       0.82954828       0.32673209 </v>
   <v>       0.96583078       0.16130256       0.32163118 </v>
   <v>       0.96511343       0.49708727       0.21492699 </v>
   <v>       0.30312427       0.82925287       0.21487079 </v>
   <v>       0.63485167       0.15918215       0.21446243 </v>
   <v>       0.77874327       0.99074780       0.44436911 </v>
   <v>       0.64792519       0.81351924       0.41864658 </v>
   <v>       0.00515019       0.83150757       0.44785353 </v>
  </varray>
  <varray name="selective"  type="logical" >
   <v type="logical" >  F  F  F </v>
   <v type="logical" >  F  F  F </v>
   <v type="logical" >  F  F  F </v>
   <v type="logical" >  F  F  F </v>
   <v type="logical" >  F  F  F </v>
   <v type="logical" >  F  F  F </v>
   <v type="logical" >  T  T  T </v>
   <v type="logical" >  T  T  T </v>
   <v type="logical" >  T  T  T </v>
   <v type="logical" >  T  T  T </v>
   <v type="logical" >  T  T  T </v>
   <v type="logical" >  T  T  T </v>
   <v type="logical" >  T  T  T </v>
   <v type="logical" >  T  T  T </v>
   <v type="logical" >  T  T  T </v>
  </varray>
  <nose>
   <v>      -3.00000000       0.00000000       0.00010000       0.00010000 </v>
  </nose>
 </structure>
</modeling>
