<?xml version="1.0" encoding="ISO-8859-1"?>
<modeling>
 <generator>
  <i name="program" type="string">vasp </i>
  <i name="version" type="string">5.4.4.18Apr17-6-g9f103f2a35  </i>
  <i name="subversion" type="string">(build Apr 23 2019 15:17:44) complex            parallel </i>
  <i name="platform" type="string">MareNostrum4 </i>
  <i name="date" type="string">2019 05 10 </i>
  <i name="time" type="string">04:00:12 </i>
 </generator>
 <incar>
  <i type="int" name="ISTART">     0</i>
  <i type="string" name="PREC">normal</i>
  <i type="string" name="ALGO"> NORMAL</i>
  <i type="int" name="ICHARG">     2</i>
  <i type="int" name="INIWAV">     1</i>
  <i type="int" name="NELMIN">     8</i>
  <i type="int" name="IBRION">     2</i>
  <i name="EDIFF">      0.00000100</i>
  <i name="EDIFFG">     -0.01000000</i>
  <i type="int" name="NSW">  1500</i>
  <i name="ENCUT">    450.00000000</i>
  <i name="POTIM">      0.20000000</i>
  <i type="int" name="ISMEAR">     2</i>
  <i name="SIGMA">      0.20000000</i>
  <i type="logical" name="LWAVE"> F  </i>
  <i type="logical" name="LCHARG"> T  </i>
  <v type="int" name="KPOINT_BSE">    -1     0     0     0</v>
  <i type="string" name="GGA"> 91</i>
  <i type="logical" name="LDIPOL"> T  </i>
  <i type="int" name="IDIPOL">     3</i>
 </incar>
 <structure name="primitive_cell" >
  <crystal>
   <varray name="basis" >
    <v>       4.88428255       0.00000000       0.00000000 </v>
    <v>       2.44214127       4.22991277       0.00000000 </v>
    <v>       0.00000000       0.00000000      22.10741862 </v>
   </varray>
   <i name="volume">    456.74123834 </i>
   <varray name="rec_basis" >
    <v>       0.20473836      -0.11820575       0.00000000 </v>
    <v>      -0.00000000       0.23641149       0.00000000 </v>
    <v>       0.00000000       0.00000000       0.04523368 </v>
   </varray>
  </crystal>
  <varray name="positions" >
   <v>       0.30286415       0.49410690       0.00209390 </v>
   <v>      -0.36380252       0.49410690       0.10624323 </v>
   <v>      -0.03046919      -0.17255977       0.10624323 </v>
   <v>      -0.36380252      -0.17255977       0.00209390 </v>
   <v>      -0.03046919       0.16077357       0.00209390 </v>
   <v>       0.30286415       0.16077357       0.10624323 </v>
   <v>      -0.03046919       0.49410690       0.19560977 </v>
   <v>       0.30286415      -0.17255977       0.19560977 </v>
   <v>      -0.36380252       0.16077357       0.19560977 </v>
   <v>       0.30286415       0.49410690       0.28690755 </v>
   <v>      -0.36380252      -0.17255977       0.28690755 </v>
   <v>      -0.03046919       0.16077357       0.28690755 </v>
   <v>      -0.32225945      -0.13633798       0.38338298 </v>
   <v>      -0.15680169       0.03753600       0.39709390 </v>
   <v>       0.05850993      -0.13910920       0.40803909 </v>
  </varray>
 </structure>
 <varray name="primitive_index" >
  <v type="int" >        1 </v>
  <v type="int" >        4 </v>
  <v type="int" >        5 </v>
  <v type="int" >        2 </v>
  <v type="int" >        3 </v>
  <v type="int" >        6 </v>
  <v type="int" >       10 </v>
  <v type="int" >       11 </v>
  <v type="int" >       12 </v>
  <v type="int" >        7 </v>
  <v type="int" >        8 </v>
  <v type="int" >        9 </v>
  <v type="int" >       14 </v>
  <v type="int" >       13 </v>
  <v type="int" >       15 </v>
 </varray>
 <kpoints>
  <generation param="Monkhorst-Pack">
   <v type="int" name="divisions">       8        8        1 </v>
   <v name="usershift">      0.00000000       0.00000000       0.00000000 </v>
   <v name="genvec1">      0.12500000      -0.00000000       0.00000000 </v>
   <v name="genvec2">      0.00000000       0.12500000       0.00000000 </v>
   <v name="genvec3">      0.00000000       0.00000000       1.00000000 </v>
   <v name="shift">      0.50000000       0.50000000       0.00000000 </v>
  </generation>
  <varray name="kpointlist" >
   <v>       0.06250000       0.06250000       0.00000000 </v>
   <v>       0.00000000       0.06250000       0.00000000 </v>
   <v>      -0.06250000       0.00000000       0.00000000 </v>
   <v>       0.18750000       0.06250000       0.00000000 </v>
   <v>       0.12500000       0.18750000       0.00000000 </v>
   <v>      -0.06250000       0.12500000       0.00000000 </v>
   <v>       0.12500000      -0.06250000       0.00000000 </v>
   <v>      -0.06250000      -0.18750000       0.00000000 </v>
   <v>      -0.18750000      -0.12500000       0.00000000 </v>
   <v>       0.31250000       0.06250000       0.00000000 </v>
   <v>       0.25000000       0.31250000       0.00000000 </v>
   <v>      -0.06250000       0.25000000       0.00000000 </v>
   <v>       0.25000000      -0.06250000       0.00000000 </v>
   <v>      -0.06250000      -0.31250000       0.00000000 </v>
   <v>      -0.31250000      -0.25000000       0.00000000 </v>
   <v>       0.43750000       0.06250000       0.00000000 </v>
   <v>       0.37500000       0.43750000       0.00000000 </v>
   <v>      -0.06250000       0.37500000       0.00000000 </v>
   <v>       0.37500000      -0.06250000       0.00000000 </v>
   <v>      -0.06250000      -0.43750000       0.00000000 </v>
   <v>      -0.43750000      -0.37500000       0.00000000 </v>
   <v>      -0.43750000       0.06250000       0.00000000 </v>
   <v>       0.50000000      -0.43750000       0.00000000 </v>
   <v>      -0.06250000       0.50000000       0.00000000 </v>
   <v>       0.50000000      -0.06250000       0.00000000 </v>
   <v>      -0.06250000       0.43750000       0.00000000 </v>
   <v>       0.43750000       0.50000000       0.00000000 </v>
   <v>      -0.31250000       0.06250000       0.00000000 </v>
   <v>      -0.37500000      -0.31250000       0.00000000 </v>
   <v>      -0.06250000      -0.37500000       0.00000000 </v>
   <v>      -0.37500000      -0.06250000       0.00000000 </v>
   <v>      -0.06250000       0.31250000       0.00000000 </v>
   <v>       0.31250000       0.37500000       0.00000000 </v>
   <v>      -0.18750000       0.06250000       0.00000000 </v>
   <v>      -0.25000000      -0.18750000       0.00000000 </v>
   <v>      -0.06250000      -0.25000000       0.00000000 </v>
   <v>      -0.25000000      -0.06250000       0.00000000 </v>
   <v>      -0.06250000       0.18750000       0.00000000 </v>
   <v>       0.18750000       0.25000000       0.00000000 </v>
   <v>      -0.06250000       0.06250000       0.00000000 </v>
   <v>      -0.12500000      -0.06250000       0.00000000 </v>
   <v>      -0.06250000      -0.12500000       0.00000000 </v>
   <v>       0.18750000       0.18750000       0.00000000 </v>
   <v>      -0.00000000       0.18750000       0.00000000 </v>
   <v>      -0.18750000       0.00000000       0.00000000 </v>
   <v>       0.31250000       0.18750000       0.00000000 </v>
   <v>       0.12500000       0.31250000       0.00000000 </v>
   <v>      -0.18750000       0.12500000       0.00000000 </v>
   <v>       0.12500000      -0.18750000       0.00000000 </v>
   <v>      -0.18750000      -0.31250000       0.00000000 </v>
   <v>      -0.31250000      -0.12500000       0.00000000 </v>
   <v>       0.43750000       0.18750000       0.00000000 </v>
   <v>       0.25000000       0.43750000       0.00000000 </v>
   <v>      -0.18750000       0.25000000       0.00000000 </v>
   <v>       0.25000000      -0.18750000       0.00000000 </v>
   <v>      -0.18750000      -0.43750000       0.00000000 </v>
   <v>      -0.43750000      -0.25000000       0.00000000 </v>
   <v>      -0.43750000       0.18750000       0.00000000 </v>
   <v>       0.37500000      -0.43750000       0.00000000 </v>
   <v>      -0.18750000       0.37500000       0.00000000 </v>
   <v>       0.37500000      -0.18750000       0.00000000 </v>
   <v>      -0.18750000       0.43750000       0.00000000 </v>
   <v>       0.43750000      -0.37500000       0.00000000 </v>
   <v>      -0.31250000       0.18750000       0.00000000 </v>
   <v>       0.50000000      -0.31250000       0.00000000 </v>
   <v>      -0.18750000       0.50000000       0.00000000 </v>
   <v>       0.50000000      -0.18750000       0.00000000 </v>
   <v>      -0.18750000       0.31250000       0.00000000 </v>
   <v>       0.31250000       0.50000000       0.00000000 </v>
   <v>      -0.18750000       0.18750000       0.00000000 </v>
   <v>      -0.37500000      -0.18750000       0.00000000 </v>
   <v>      -0.18750000      -0.37500000       0.00000000 </v>
   <v>       0.31250000       0.31250000       0.00000000 </v>
   <v>      -0.00000000       0.31250000       0.00000000 </v>
   <v>      -0.31250000       0.00000000       0.00000000 </v>
   <v>       0.43750000       0.31250000       0.00000000 </v>
   <v>       0.12500000       0.43750000       0.00000000 </v>
   <v>      -0.31250000       0.12500000       0.00000000 </v>
   <v>       0.12500000      -0.31250000       0.00000000 </v>
   <v>      -0.31250000      -0.43750000       0.00000000 </v>
   <v>      -0.43750000      -0.12500000       0.00000000 </v>
   <v>      -0.43750000       0.31250000       0.00000000 </v>
   <v>       0.25000000      -0.43750000       0.00000000 </v>
   <v>      -0.31250000       0.25000000       0.00000000 </v>
   <v>       0.25000000      -0.31250000       0.00000000 </v>
   <v>      -0.31250000       0.43750000       0.00000000 </v>
   <v>       0.43750000      -0.25000000       0.00000000 </v>
   <v>      -0.31250000       0.31250000       0.00000000 </v>
   <v>       0.37500000      -0.31250000       0.00000000 </v>
   <v>      -0.31250000       0.37500000       0.00000000 </v>
   <v>       0.43750000       0.43750000       0.00000000 </v>
   <v>       0.00000000       0.43750000       0.00000000 </v>
   <v>      -0.43750000       0.00000000       0.00000000 </v>
   <v>      -0.43750000       0.43750000       0.00000000 </v>
   <v>       0.12500000      -0.43750000       0.00000000 </v>
   <v>      -0.43750000       0.12500000       0.00000000 </v>
  </varray>
  <varray name="weights" >
   <v>       0.01041667 </v>
   <v>       0.01041667 </v>
   <v>       0.01041667 </v>
   <v>       0.01041667 </v>
   <v>       0.01041667 </v>
   <v>       0.01041667 </v>
   <v>       0.01041667 </v>
   <v>       0.01041667 </v>
   <v>       0.01041667 </v>
   <v>       0.01041667 </v>
   <v>       0.01041667 </v>
   <v>       0.01041667 </v>
   <v>       0.01041667 </v>
   <v>       0.01041667 </v>
   <v>       0.01041667 </v>
   <v>       0.01041667 </v>
   <v>       0.01041667 </v>
   <v>       0.01041667 </v>
   <v>       0.01041667 </v>
   <v>       0.01041667 </v>
   <v>       0.01041667 </v>
   <v>       0.01041667 </v>
   <v>       0.01041667 </v>
   <v>       0.01041667 </v>
   <v>       0.01041667 </v>
   <v>       0.01041667 </v>
   <v>       0.01041667 </v>
   <v>       0.01041667 </v>
   <v>       0.01041667 </v>
   <v>       0.01041667 </v>
   <v>       0.01041667 </v>
   <v>       0.01041667 </v>
   <v>       0.01041667 </v>
   <v>       0.01041667 </v>
   <v>       0.01041667 </v>
   <v>       0.01041667 </v>
   <v>       0.01041667 </v>
   <v>       0.01041667 </v>
   <v>       0.01041667 </v>
   <v>       0.01041667 </v>
   <v>       0.01041667 </v>
   <v>       0.01041667 </v>
   <v>       0.01041667 </v>
   <v>       0.01041667 </v>
   <v>       0.01041667 </v>
   <v>       0.01041667 </v>
   <v>       0.01041667 </v>
   <v>       0.01041667 </v>
   <v>       0.01041667 </v>
   <v>       0.01041667 </v>
   <v>       0.01041667 </v>
   <v>       0.01041667 </v>
   <v>       0.01041667 </v>
   <v>       0.01041667 </v>
   <v>       0.01041667 </v>
   <v>       0.01041667 </v>
   <v>       0.01041667 </v>
   <v>       0.01041667 </v>
   <v>       0.01041667 </v>
   <v>       0.01041667 </v>
   <v>       0.01041667 </v>
   <v>       0.01041667 </v>
   <v>       0.01041667 </v>
   <v>       0.01041667 </v>
   <v>       0.01041667 </v>
   <v>       0.01041667 </v>
   <v>       0.01041667 </v>
   <v>       0.01041667 </v>
   <v>       0.01041667 </v>
   <v>       0.01041667 </v>
   <v>       0.01041667 </v>
   <v>       0.01041667 </v>
   <v>       0.01041667 </v>
   <v>       0.01041667 </v>
   <v>       0.01041667 </v>
   <v>       0.01041667 </v>
   <v>       0.01041667 </v>
   <v>       0.01041667 </v>
   <v>       0.01041667 </v>
   <v>       0.01041667 </v>
   <v>       0.01041667 </v>
   <v>       0.01041667 </v>
   <v>       0.01041667 </v>
   <v>       0.01041667 </v>
   <v>       0.01041667 </v>
   <v>       0.01041667 </v>
   <v>       0.01041667 </v>
   <v>       0.01041667 </v>
   <v>       0.01041667 </v>
   <v>       0.01041667 </v>
   <v>       0.01041667 </v>
   <v>       0.01041667 </v>
   <v>       0.01041667 </v>
   <v>       0.01041667 </v>
   <v>       0.01041667 </v>
   <v>       0.01041667 </v>
  </varray>
 </kpoints>
 <parameters>
  <separator name="general" >
   <i type="string" name="SYSTEM">unknown system</i>
   <i type="logical" name="LCOMPAT"> F  </i>
  </separator>
  <separator name="electronic" >
   <i type="string" name="PREC">normal</i>
   <i name="ENMAX">    450.00000000</i>
   <i name="ENAUG">    605.39200000</i>
   <i name="EDIFF">      0.00000100</i>
   <i type="int" name="IALGO">    38</i>
   <i type="int" name="IWAVPR">    11</i>
   <i type="int" name="NBANDS">    80</i>
   <i name="NELECT">    133.00000000</i>
   <i type="int" name="TURBO">     0</i>
   <i type="int" name="IRESTART">     0</i>
   <i type="int" name="NREBOOT">     0</i>
   <i type="int" name="NMIN">     0</i>
   <i name="EREF">      0.00000000</i>
   <separator name="electronic smearing" >
    <i type="int" name="ISMEAR">     2</i>
    <i name="SIGMA">      0.20000000</i>
    <i name="KSPACING">      0.50000000</i>
    <i type="logical" name="KGAMMA"> T  </i>
   </separator>
   <separator name="electronic projectors" >
    <i type="logical" name="LREAL"> F  </i>
    <v name="ROPT">      0.00000000      0.00000000      0.00000000      0.00000000</v>
    <i type="int" name="LMAXPAW">  -100</i>
    <i type="int" name="LMAXMIX">     2</i>
    <i type="logical" name="NLSPLINE"> F  </i>
   </separator>
   <separator name="electronic startup" >
    <i type="int" name="ISTART">     0</i>
    <i type="int" name="ICHARG">     2</i>
    <i type="int" name="INIWAV">     1</i>
   </separator>
   <separator name="electronic spin" >
    <i type="int" name="ISPIN">     1</i>
    <i type="logical" name="LNONCOLLINEAR"> F  </i>
    <v name="MAGMOM">      1.00000000      1.00000000      1.00000000      1.00000000      1.00000000      1.00000000      1.00000000      1.00000000      1.00000000      1.00000000      1.00000000      1.00000000      1.00000000      1.00000000      1.00000000</v>
    <i name="NUPDOWN">     -1.00000000</i>
    <i type="logical" name="LSORBIT"> F  </i>
    <v name="SAXIS">      0.00000000      0.00000000      1.00000000</v>
    <i type="logical" name="LSPIRAL"> F  </i>
    <v name="QSPIRAL">      0.00000000      0.00000000      0.00000000</v>
    <i type="logical" name="LZEROZ"> F  </i>
   </separator>
   <separator name="electronic exchange-correlation" >
    <i type="logical" name="LASPH"> F  </i>
    <i type="logical" name="LMETAGGA"> F  </i>
   </separator>
   <separator name="electronic convergence" >
    <i type="int" name="NELM">    60</i>
    <i type="int" name="NELMDL">    -5</i>
    <i type="int" name="NELMIN">     8</i>
    <i name="ENINI">    450.00000000</i>
    <separator name="electronic convergence detail" >
     <i type="logical" name="LDIAG"> T  </i>
     <i type="logical" name="LSUBROT"> F  </i>
     <i name="WEIMIN">      0.00100000</i>
     <i name="EBREAK">      0.00000000</i>
     <i name="DEPER">      0.30000000</i>
     <i type="int" name="NRMM">     4</i>
     <i name="TIME">      0.40000000</i>
    </separator>
   </separator>
   <separator name="electronic mixer" >
    <i name="AMIX">      0.40000000</i>
    <i name="BMIX">      1.00000000</i>
    <i name="AMIN">      0.10000000</i>
    <i name="AMIX_MAG">      1.60000000</i>
    <i name="BMIX_MAG">      1.00000000</i>
    <separator name="electronic mixer details" >
     <i type="int" name="IMIX">     4</i>
     <i type="logical" name="MIXFIRST"> F  </i>
     <i type="int" name="MAXMIX">   -45</i>
     <i name="WC">    100.00000000</i>
     <i type="int" name="INIMIX">     1</i>
     <i type="int" name="MIXPRE">     1</i>
     <i type="int" name="MREMOVE">     5</i>
    </separator>
   </separator>
   <separator name="electronic dipolcorrection" >
    <i type="logical" name="LDIPOL"> T  </i>
    <i type="logical" name="LMONO"> F  </i>
    <i type="int" name="IDIPOL">     3</i>
    <i name="EPSILON">      1.00000000</i>
    <v name="DIPOL">   -100.00000000   -100.00000000   -100.00000000</v>
    <i name="EFIELD">      0.00000000</i>
   </separator>
  </separator>
  <separator name="grids" >
   <i type="int" name="NGX">    28</i>
   <i type="int" name="NGY">    28</i>
   <i type="int" name="NGZ">   120</i>
   <i type="int" name="NGXF">    56</i>
   <i type="int" name="NGYF">    56</i>
   <i type="int" name="NGZF">   240</i>
   <i type="logical" name="ADDGRID"> F  </i>
  </separator>
  <separator name="ionic" >
   <i type="int" name="NSW">  1500</i>
   <i type="int" name="IBRION">     2</i>
   <i type="int" name="MDALGO">     0</i>
   <i type="int" name="ISIF">     2</i>
   <i name="PSTRESS">      0.00000000</i>
   <i name="EDIFFG">     -0.01000000</i>
   <i type="int" name="NFREE">     1</i>
   <i name="POTIM">      0.20000000</i>
   <i name="SMASS">     -3.00000000</i>
   <i name="SCALEE">      1.00000000</i>
  </separator>
  <separator name="ionic md" >
   <i name="TEBEG">      0.00010000</i>
   <i name="TEEND">      0.00010000</i>
   <i type="int" name="NBLOCK">     1</i>
   <i type="int" name="KBLOCK">  1500</i>
   <i type="int" name="NPACO">   256</i>
   <i name="APACO">     16.00000000</i>
  </separator>
  <separator name="symmetry" >
   <i type="int" name="ISYM">     2</i>
   <i name="SYMPREC">      0.00001000</i>
  </separator>
  <separator name="dos" >
   <i type="int" name="LORBIT">     0</i>
   <v name="RWIGS">     -1.00000000     -1.00000000     -1.00000000     -1.00000000</v>
   <i type="int" name="NEDOS">   301</i>
   <i name="EMIN">     10.00000000</i>
   <i name="EMAX">    -10.00000000</i>
   <i name="EFERMI">      0.00000000</i>
  </separator>
  <separator name="writing" >
   <i type="int" name="NWRITE">     2</i>
   <i type="logical" name="LWAVE"> F  </i>
   <i type="logical" name="LDOWNSAMPLE"> F  </i>
   <i type="logical" name="LCHARG"> T  </i>
   <i type="logical" name="LPARD"> F  </i>
   <i type="logical" name="LVTOT"> F  </i>
   <i type="logical" name="LVHAR"> F  </i>
   <i type="logical" name="LELF"> F  </i>
   <i type="logical" name="LOPTICS"> F  </i>
   <v name="STM">      0.00000000      0.00000000      0.00000000      0.00000000      0.00000000      0.00000000      0.00000000</v>
  </separator>
  <separator name="performance" >
   <i type="int" name="NPAR">     2</i>
   <i type="int" name="NSIM">     4</i>
   <i type="int" name="NBLK">    -1</i>
   <i type="logical" name="LPLANE"> T  </i>
   <i type="logical" name="LSCALAPACK"> T  </i>
   <i type="logical" name="LSCAAWARE"> F  </i>
   <i type="logical" name="LSCALU"> F  </i>
   <i type="logical" name="LASYNC"> F  </i>
   <i type="logical" name="LORBITALREAL"> F  </i>
  </separator>
  <separator name="miscellaneous" >
   <i type="int" name="IDIOT">     3</i>
   <i type="int" name="ISPECIAL">     0</i>
   <i type="logical" name="LMUSIC"> F  </i>
   <v name="POMASS">    195.08000000     58.69000000     16.00000000      1.00000000</v>
   <v name="DARWINR">      0.00000000      0.00000000      0.00000000      0.00000000</v>
   <v name="DARWINV">      1.00000000      1.00000000      1.00000000      1.00000000</v>
   <i type="logical" name="LCORR"> T  </i>
  </separator>
  <i type="logical" name="GGA_COMPAT"> T  </i>
  <i type="logical" name="LBERRY"> F  </i>
  <i type="int" name="ICORELEVEL">     0</i>
  <i type="logical" name="LDAU"> F  </i>
  <i type="int" name="I_CONSTRAINED_M">     0</i>
  <separator name="electronic exchange-correlation" >
   <i type="string" name="GGA">91</i>
   <i type="int" name="VOSKOWN">     0</i>
   <i type="logical" name="LHFCALC"> F  </i>
   <i type="string" name="PRECFOCK"></i>
   <i type="logical" name="LSYMGRAD"> F  </i>
   <i type="logical" name="LHFONE"> F  </i>
   <i type="logical" name="LRHFCALC"> F  </i>
   <i type="logical" name="LTHOMAS"> F  </i>
   <i type="logical" name="LMODELHF"> F  </i>
   <i name="ENCUT4O">     -1.00000000</i>
   <i type="int" name="EXXOEP">     0</i>
   <i type="int" name="FOURORBIT">     0</i>
   <i name="AEXX">      0.00000000</i>
   <i name="HFALPHA">      0.00000000</i>
   <i name="MCALPHA">      0.00000000</i>
   <i name="ALDAX">      1.00000000</i>
   <i name="AGGAX">      1.00000000</i>
   <i name="ALDAC">      1.00000000</i>
   <i name="AGGAC">      1.00000000</i>
   <i type="int" name="NKREDX">     1</i>
   <i type="int" name="NKREDY">     1</i>
   <i type="int" name="NKREDZ">     1</i>
   <i type="logical" name="SHIFTRED"> F  </i>
   <i type="logical" name="ODDONLY"> F  </i>
   <i type="logical" name="EVENONLY"> F  </i>
   <i type="int" name="LMAXFOCK">     0</i>
   <i type="int" name="NMAXFOCKAE">     0</i>
   <i type="logical" name="LFOCKAEDFT"> F  </i>
   <i name="HFSCREEN">      0.00000000</i>
   <i name="HFSCREENC">      0.00000000</i>
   <i type="int" name="NBANDSGWLOW">     0</i>
  </separator>
  <separator name="vdW DFT" >
   <i type="logical" name="LUSE_VDW"> F  </i>
   <i name="Zab_VDW">     -0.84910000</i>
   <i name="PARAM1">      0.12340000</i>
   <i name="PARAM2">      1.00000000</i>
   <i name="PARAM3">      0.00000000</i>
  </separator>
  <separator name="model GW" >
   <i type="int" name="MODEL_GW">     0</i>
   <i name="MODEL_EPS0">     18.26964953</i>
   <i name="MODEL_ALPHA">      1.00000000</i>
  </separator>
  <separator name="linear response parameters" >
   <i type="logical" name="LEPSILON"> F  </i>
   <i type="logical" name="LRPA"> F  </i>
   <i type="logical" name="LNABLA"> F  </i>
   <i type="logical" name="LVEL"> F  </i>
   <i type="int" name="KINTER">     0</i>
   <i name="CSHIFT">      0.10000000</i>
   <i name="OMEGAMAX">     -1.00000000</i>
   <i name="DEG_THRESHOLD">      0.00200000</i>
   <i name="RTIME">     -0.10000000</i>
   <i name="WPLASMAI">      0.00000000</i>
   <v name="DFIELD">      0.00000000      0.00000000      0.00000000</v>
   <v name="WPLASMA">      0.00000000      0.00000000      0.00000000      0.00000000      0.00000000      0.00000000      0.00000000      0.00000000      0.00000000</v>
  </separator>
  <separator name="orbital magnetization" >
   <i type="logical" name="NUCIND"> F  </i>
   <v name="MAGPOS">      0.00000000      0.00000000      0.00000000</v>
   <i type="logical" name="LNICSALL"> T  </i>
   <i type="logical" name="ORBITALMAG"> F  </i>
   <i type="logical" name="LMAGBLOCH"> F  </i>
   <i type="logical" name="LCHIMAG"> F  </i>
   <i type="logical" name="LGAUGE"> T  </i>
   <i type="int" name="MAGATOM">     0</i>
   <v name="MAGDIPOL">      0.00000000      0.00000000      0.00000000</v>
   <v name="AVECCONST">      0.00000000      0.00000000      0.00000000</v>
  </separator>
  <separator name="response functions" >
   <i type="logical" name="LADDER"> F  </i>
   <i type="logical" name="LRPAFORCE"> F  </i>
   <i type="logical" name="LFXC"> F  </i>
   <i type="logical" name="LHARTREE"> T  </i>
   <i type="int" name="IBSE">     0</i>
   <v type="int" name="KPOINT">    -1     0     0     0</v>
   <i type="logical" name="LTCTE"> F  </i>
   <i type="logical" name="LTETE"> F  </i>
   <i type="logical" name="LTRIPLET"> F  </i>
   <i type="logical" name="LFXCEPS"> F  </i>
   <i type="logical" name="LFXHEG"> F  </i>
   <i type="int" name="NATURALO">     2</i>
   <i type="logical" name="L2ORDER"> F  </i>
   <i type="logical" name="LMP2LT"> F  </i>
   <i type="logical" name="LUSEW"> F  </i>
   <i name="ENCUTGW">     -2.00000000</i>
   <i name="ENCUTGWSOFT">     -2.00000000</i>
   <i name="ENCUTLF">     -1.00000000</i>
   <i type="int" name="LMAXMP2">    -1</i>
   <i name="SCISSOR">      0.00000000</i>
   <i type="int" name="NOMEGA">     0</i>
   <i type="int" name="NOMEGAR">     0</i>
   <i type="int" name="NBANDSGW">    -1</i>
   <i type="int" name="NBANDSO">    -1</i>
   <i type="int" name="NBANDSV">    -1</i>
   <i type="int" name="NELM">     1</i>
   <i type="int" name="NELMHF">     1</i>
   <i type="int" name="DIM">     3</i>
   <i type="int" name="ANTIRES">     0</i>
   <i name="OMEGAMAX">    -30.00000000</i>
   <i name="OMEGAMIN">    -30.00000000</i>
   <i name="OMEGATL">   -200.00000000</i>
   <i type="int" name="OMEGAGRID">   140</i>
   <i name="CSHIFT">     -0.10000000</i>
   <i type="logical" name="SELFENERGY"> F  </i>
   <i type="logical" name="LSPECTRAL"> F  </i>
   <i type="logical" name="LSPECTRALGW"> F  </i>
   <i type="logical" name="LSINGLES"> F  </i>
   <i type="logical" name="LFERMIGW"> F  </i>
   <i type="logical" name="ODDONLYGW"> F  </i>
   <i type="logical" name="EVENONLYGW"> F  </i>
   <i type="int" name="NKREDLFX">     1</i>
   <i type="int" name="NKREDLFY">     1</i>
   <i type="int" name="NKREDLFZ">     1</i>
   <i type="int" name="MAXMEM">  2800</i>
   <i type="int" name="TELESCOPE">     0</i>
   <i type="int" name="TAUPAR">     1</i>
   <i type="int" name="OMEGAPAR">    -1</i>
   <i name="LAMBDA">      1.00000000</i>
  </separator>
  <separator name="External order field" >
   <i name="OFIELD_KAPPA">      0.00000000</i>
   <v name="OFIELD_K">      0.00000000      0.00000000      0.00000000</v>
   <i name="OFIELD_Q6_NEAR">      0.00000000</i>
   <i name="OFIELD_Q6_FAR">      0.00000000</i>
   <i name="OFIELD_A">      0.00000000</i>
  </separator>
 </parameters>
 <atominfo>
  <atoms>      15 </atoms>
  <types>       4 </types>
  <array name="atoms" >
   <dimension dim="1">ion</dimension>
   <field type="string">element</field>
   <field type="int">atomtype</field>
   <set>
    <rc><c>Pt</c><c>   1</c></rc>
    <rc><c>Pt</c><c>   1</c></rc>
    <rc><c>Pt</c><c>   1</c></rc>
    <rc><c>Pt</c><c>   1</c></rc>
    <rc><c>Pt</c><c>   1</c></rc>
    <rc><c>Pt</c><c>   1</c></rc>
    <rc><c>Pt</c><c>   1</c></rc>
    <rc><c>Pt</c><c>   1</c></rc>
    <rc><c>Pt</c><c>   1</c></rc>
    <rc><c>Ni</c><c>   2</c></rc>
    <rc><c>Ni</c><c>   2</c></rc>
    <rc><c>Ni</c><c>   2</c></rc>
    <rc><c>O </c><c>   3</c></rc>
    <rc><c>O </c><c>   3</c></rc>
    <rc><c>H </c><c>   4</c></rc>
   </set>
  </array>
  <array name="atomtypes" >
   <dimension dim="1">type</dimension>
   <field type="int">atomspertype</field>
   <field type="string">element</field>
   <field>mass</field>
   <field>valence</field>
   <field type="string">pseudopotential</field>
   <set>
    <rc><c>   9</c><c>Pt</c><c>    195.08000000</c><c>     10.00000000</c><c> PAW_PBE Pt 05Jan2001                   </c></rc>
    <rc><c>   3</c><c>Ni</c><c>     58.69000000</c><c>     10.00000000</c><c> PAW_PBE Ni 06Sep2000                   </c></rc>
    <rc><c>   2</c><c>O </c><c>     16.00000000</c><c>      6.00000000</c><c> PAW_PBE O 08Apr2002                    </c></rc>
    <rc><c>   1</c><c>H </c><c>      1.00000000</c><c>      1.00000000</c><c> PAW_PBE H 15Jun2001                    </c></rc>
   </set>
  </array>
 </atominfo>
 <structure name="initialpos" >
  <crystal>
   <varray name="basis" >
    <v>       4.88428255       0.00000000       0.00000000 </v>
    <v>       2.44214127       4.22991277       0.00000000 </v>
    <v>       0.00000000       0.00000000      22.10741862 </v>
   </varray>
   <i name="volume">    456.74123834 </i>
   <varray name="rec_basis" >
    <v>       0.20473836      -0.11820575       0.00000000 </v>
    <v>      -0.00000000       0.23641149       0.00000000 </v>
    <v>       0.00000000       0.00000000       0.04523368 </v>
   </varray>
  </crystal>
  <varray name="positions" >
   <v>       0.30286415       0.49410690       0.00209390 </v>
   <v>       0.63619748       0.82744023       0.00209390 </v>
   <v>       0.96953081       0.16077357       0.00209390 </v>
   <v>       0.63619748       0.49410690       0.10624323 </v>
   <v>       0.96953081       0.82744023       0.10624323 </v>
   <v>       0.30286415       0.16077357       0.10624323 </v>
   <v>       0.30286415       0.49410690       0.28690755 </v>
   <v>       0.63619748       0.82744023       0.28690755 </v>
   <v>       0.96953081       0.16077357       0.28690755 </v>
   <v>       0.96953081       0.49410690       0.19560977 </v>
   <v>       0.30286415       0.82744023       0.19560977 </v>
   <v>       0.63619748       0.16077357       0.19560977 </v>
   <v>       0.84319831       0.03753600       0.39709390 </v>
   <v>       0.67774055       0.86366202       0.38338298 </v>
   <v>       0.05850993       0.86089080       0.40803909 </v>
  </varray>
  <varray name="selective"  type="logical" >
   <v type="logical" >  F  F  F </v>
   <v type="logical" >  F  F  F </v>
   <v type="logical" >  F  F  F </v>
   <v type="logical" >  F  F  F </v>
   <v type="logical" >  F  F  F </v>
   <v type="logical" >  F  F  F </v>
   <v type="logical" >  T  T  T </v>
   <v type="logical" >  T  T  T </v>
   <v type="logical" >  T  T  T </v>
   <v type="logical" >  T  T  T </v>
   <v type="logical" >  T  T  T </v>
   <v type="logical" >  T  T  T </v>
   <v type="logical" >  T  T  T </v>
   <v type="logical" >  T  T  T </v>
   <v type="logical" >  T  T  T </v>
  </varray>
  <nose>
   <v>      -3.00000000       0.00000000       0.00010000       0.00010000 </v>
  </nose>
 </structure>
 <calculation>
  <scstep>
   <time name="dav">    7.45    7.56</time>
   <time name="total">    7.50    7.65</time>
   <dipole>
    <v name="dipole">      0.00000000       0.00000000      -0.00011711 </v>
    <i name="Tr[quadrupol]">   -532.83029197 </i>
    <i name="Echarged">      0.00000000 </i>
    <i name="Edipol_quadrupol">      0.00000000 </i>
    <i name="Eion">      0.00000000 </i>
   </dipole>
   <energy>
    <i name="alphaZ">    483.57463884 </i>
    <i name="ewald">  36358.83673665 </i>
    <i name="hartreedc"> -47368.27309315 </i>
    <i name="XCdc">    178.56069650 </i>
    <i name="pawpsdc">   8266.00993178 </i>
    <i name="pawaedc">  -8217.00034878 </i>
    <i name="eentropy">     -0.00237846 </i>
    <i name="bandstr">    963.30051754 </i>
    <i name="atom">  10675.36974215 </i>
    <i name="e_fr_energy">   1340.37644307 </i>
    <i name="e_wo_entrp">   1340.37882152 </i>
    <i name="e_0_energy">   1340.37703768 </i>
   </energy>
  </scstep>
  <scstep>
   <time name="dav">    7.40    7.40</time>
   <time name="total">    7.42    7.42</time>
   <dipole>
    <v name="dipole">      0.00000000       0.00000000      -0.00011711 </v>
    <i name="Tr[quadrupol]">   -532.83029197 </i>
    <i name="Echarged">      0.00000000 </i>
    <i name="Edipol_quadrupol">      0.00000000 </i>
    <i name="Eion">      0.00000000 </i>
   </dipole>
   <energy>
    <i name="e_fr_energy">     98.33982824 </i>
    <i name="e_wo_entrp">     98.33996655 </i>
    <i name="e_0_energy">     98.33986281 </i>
   </energy>
  </scstep>
  <scstep>
   <time name="dav">    9.40    9.40</time>
   <time name="total">    9.42    9.42</time>
   <dipole>
    <v name="dipole">      0.00000000       0.00000000      -0.00011711 </v>
    <i name="Tr[quadrupol]">   -532.83029197 </i>
    <i name="Echarged">      0.00000000 </i>
    <i name="Edipol_quadrupol">      0.00000000 </i>
    <i name="Eion">      0.00000000 </i>
   </dipole>
   <energy>
    <i name="e_fr_energy">    -76.48703282 </i>
    <i name="e_wo_entrp">    -76.48675214 </i>
    <i name="e_0_energy">    -76.48696265 </i>
   </energy>
  </scstep>
  <scstep>
   <time name="dav">    9.18    9.19</time>
   <time name="total">    9.20    9.21</time>
   <dipole>
    <v name="dipole">      0.00000000       0.00000000      -0.00011711 </v>
    <i name="Tr[quadrupol]">   -532.83029197 </i>
    <i name="Echarged">      0.00000000 </i>
    <i name="Edipol_quadrupol">      0.00000000 </i>
    <i name="Eion">      0.00000000 </i>
   </dipole>
   <energy>
    <i name="e_fr_energy">    -91.36966067 </i>
    <i name="e_wo_entrp">    -91.38982503 </i>
    <i name="e_0_energy">    -91.37470176 </i>
   </energy>
  </scstep>
  <scstep>
   <time name="dav">    9.53    9.53</time>
   <time name="total">   10.04   10.05</time>
   <dipole>
    <v name="dipole">      0.00000000       0.00000000      -0.00011711 </v>
    <i name="Tr[quadrupol]">   -532.83029197 </i>
    <i name="Echarged">      0.00000000 </i>
    <i name="Edipol_quadrupol">      0.00000000 </i>
    <i name="Eion">      0.00000000 </i>
   </dipole>
   <energy>
    <i name="e_fr_energy">    -91.80455732 </i>
    <i name="e_wo_entrp">    -91.82520886 </i>
    <i name="e_0_energy">    -91.80972021 </i>
   </energy>
  </scstep>
  <scstep>
   <time name="dav">    9.39    9.39</time>
   <time name="total">    9.91    9.92</time>
   <dipole>
    <v name="dipole">      0.00000000       0.00000000       0.30763737 </v>
    <i name="Tr[quadrupol]">   -531.10612769 </i>
    <i name="Echarged">      0.00000000 </i>
    <i name="Edipol_quadrupol">      0.00000000 </i>
    <i name="Eion">      0.00000000 </i>
   </dipole>
   <energy>
    <i name="e_fr_energy">    -97.10119459 </i>
    <i name="e_wo_entrp">    -97.08606625 </i>
    <i name="e_0_energy">    -97.09741251 </i>
   </energy>
  </scstep>
  <scstep>
   <time name="dav">    9.87    9.87</time>
   <time name="total">   10.38   10.39</time>
   <dipole>
    <v name="dipole">      0.00000000       0.00000000      -0.72754639 </v>
    <i name="Tr[quadrupol]">   -533.16141097 </i>
    <i name="Echarged">      0.00000000 </i>
    <i name="Edipol_quadrupol">      0.00000000 </i>
    <i name="Eion">      0.00000000 </i>
   </dipole>
   <energy>
    <i name="e_fr_energy">   -108.90526796 </i>
    <i name="e_wo_entrp">   -108.89445125 </i>
    <i name="e_0_energy">   -108.90256378 </i>
   </energy>
  </scstep>
  <scstep>
   <time name="dav">   10.85   10.85</time>
   <time name="total">   11.37   11.37</time>
   <dipole>
    <v name="dipole">      0.00000000       0.00000000       0.04422568 </v>
    <i name="Tr[quadrupol]">   -534.37826234 </i>
    <i name="Echarged">      0.00000000 </i>
    <i name="Edipol_quadrupol">      0.00000000 </i>
    <i name="Eion">      0.00000000 </i>
   </dipole>
   <energy>
    <i name="e_fr_energy">    -93.12735624 </i>
    <i name="e_wo_entrp">    -93.16702378 </i>
    <i name="e_0_energy">    -93.13727313 </i>
   </energy>
  </scstep>
  <scstep>
   <time name="dav">   10.81   10.81</time>
   <time name="total">   11.33   11.34</time>
   <dipole>
    <v name="dipole">      0.00000000       0.00000000      -0.03807729 </v>
    <i name="Tr[quadrupol]">   -533.60359068 </i>
    <i name="Echarged">      0.00000000 </i>
    <i name="Edipol_quadrupol">      0.00000000 </i>
    <i name="Eion">      0.00000000 </i>
   </dipole>
   <energy>
    <i name="e_fr_energy">    -86.00219795 </i>
    <i name="e_wo_entrp">    -86.00346149 </i>
    <i name="e_0_energy">    -86.00251384 </i>
   </energy>
  </scstep>
  <scstep>
   <time name="dav">   10.18   10.19</time>
   <time name="total">   10.71   10.71</time>
   <dipole>
    <v name="dipole">      0.00000000       0.00000000      -0.03483351 </v>
    <i name="Tr[quadrupol]">   -533.02913860 </i>
    <i name="Echarged">      0.00000000 </i>
    <i name="Edipol_quadrupol">      0.00000000 </i>
    <i name="Eion">      0.00000000 </i>
   </dipole>
   <energy>
    <i name="e_fr_energy">    -83.91955699 </i>
    <i name="e_wo_entrp">    -83.90676195 </i>
    <i name="e_0_energy">    -83.91635823 </i>
   </energy>
  </scstep>
  <scstep>
   <time name="dav">   10.04   10.04</time>
   <time name="total">   10.56   10.56</time>
   <dipole>
    <v name="dipole">      0.00000000       0.00000000      -0.03360509 </v>
    <i name="Tr[quadrupol]">   -533.07771071 </i>
    <i name="Echarged">      0.00000000 </i>
    <i name="Edipol_quadrupol">      0.00000000 </i>
    <i name="Eion">      0.00000000 </i>
   </dipole>
   <energy>
    <i name="e_fr_energy">    -83.71429885 </i>
    <i name="e_wo_entrp">    -83.70523662 </i>
    <i name="e_0_energy">    -83.71203329 </i>
   </energy>
  </scstep>
  <scstep>
   <time name="dav">   10.24   10.24</time>
   <time name="total">   10.76   10.77</time>
   <dipole>
    <v name="dipole">      0.00000000       0.00000000      -0.03511891 </v>
    <i name="Tr[quadrupol]">   -533.17995205 </i>
    <i name="Echarged">      0.00000000 </i>
    <i name="Edipol_quadrupol">      0.00000000 </i>
    <i name="Eion">      0.00000000 </i>
   </dipole>
   <energy>
    <i name="e_fr_energy">    -83.54191840 </i>
    <i name="e_wo_entrp">    -83.52948403 </i>
    <i name="e_0_energy">    -83.53880981 </i>
   </energy>
  </scstep>
  <scstep>
   <time name="dav">   13.22   13.42</time>
   <time name="total">   13.75   13.95</time>
   <dipole>
    <v name="dipole">      0.00000000       0.00000000      -0.01660580 </v>
    <i name="Tr[quadrupol]">   -533.27613427 </i>
    <i name="Echarged">      0.00000000 </i>
    <i name="Edipol_quadrupol">      0.00000000 </i>
    <i name="Eion">      0.00000000 </i>
   </dipole>
   <energy>
    <i name="e_fr_energy">    -83.24015707 </i>
    <i name="e_wo_entrp">    -83.22202670 </i>
    <i name="e_0_energy">    -83.23562447 </i>
   </energy>
  </scstep>
  <scstep>
   <time name="dav">   10.28   10.28</time>
   <time name="total">   10.79   10.80</time>
   <dipole>
    <v name="dipole">      0.00000000       0.00000000      -0.00397097 </v>
    <i name="Tr[quadrupol]">   -533.25348432 </i>
    <i name="Echarged">      0.00000000 </i>
    <i name="Edipol_quadrupol">      0.00000000 </i>
    <i name="Eion">      0.00000000 </i>
   </dipole>
   <energy>
    <i name="e_fr_energy">    -83.12374103 </i>
    <i name="e_wo_entrp">    -83.10493395 </i>
    <i name="e_0_energy">    -83.11903926 </i>
   </energy>
  </scstep>
  <scstep>
   <time name="dav">   11.46   11.47</time>
   <time name="total">   11.98   11.99</time>
   <dipole>
    <v name="dipole">      0.00000000       0.00000000       0.01773596 </v>
    <i name="Tr[quadrupol]">   -533.22381498 </i>
    <i name="Echarged">      0.00000000 </i>
    <i name="Edipol_quadrupol">      0.00000000 </i>
    <i name="Eion">      0.00000000 </i>
   </dipole>
   <energy>
    <i name="e_fr_energy">    -83.01977938 </i>
    <i name="e_wo_entrp">    -83.00941894 </i>
    <i name="e_0_energy">    -83.01718927 </i>
   </energy>
  </scstep>
  <scstep>
   <time name="dav">    9.72    9.72</time>
   <time name="total">   10.24   10.24</time>
   <dipole>
    <v name="dipole">      0.00000000       0.00000000       0.02616047 </v>
    <i name="Tr[quadrupol]">   -533.29353859 </i>
    <i name="Echarged">      0.00000000 </i>
    <i name="Edipol_quadrupol">      0.00000000 </i>
    <i name="Eion">      0.00000000 </i>
   </dipole>
   <energy>
    <i name="e_fr_energy">    -82.93632100 </i>
    <i name="e_wo_entrp">    -82.92679803 </i>
    <i name="e_0_energy">    -82.93394026 </i>
   </energy>
  </scstep>
  <scstep>
   <time name="dav">   10.17   10.17</time>
   <time name="total">   10.69   10.70</time>
   <dipole>
    <v name="dipole">      0.00000000       0.00000000       0.01321864 </v>
    <i name="Tr[quadrupol]">   -533.32559027 </i>
    <i name="Echarged">      0.00000000 </i>
    <i name="Edipol_quadrupol">      0.00000000 </i>
    <i name="Eion">      0.00000000 </i>
   </dipole>
   <energy>
    <i name="e_fr_energy">    -82.92563017 </i>
    <i name="e_wo_entrp">    -82.92354814 </i>
    <i name="e_0_energy">    -82.92510966 </i>
   </energy>
  </scstep>
  <scstep>
   <time name="dav">    9.30    9.30</time>
   <time name="total">    9.81    9.82</time>
   <dipole>
    <v name="dipole">      0.00000000       0.00000000       0.00899154 </v>
    <i name="Tr[quadrupol]">   -533.38088653 </i>
    <i name="Echarged">      0.00000000 </i>
    <i name="Edipol_quadrupol">      0.00000000 </i>
    <i name="Eion">      0.00000000 </i>
   </dipole>
   <energy>
    <i name="e_fr_energy">    -82.91061684 </i>
    <i name="e_wo_entrp">    -82.90400889 </i>
    <i name="e_0_energy">    -82.90896485 </i>
   </energy>
  </scstep>
  <scstep>
   <time name="dav">   10.04   10.05</time>
   <time name="total">   10.56   10.57</time>
   <dipole>
    <v name="dipole">      0.00000000       0.00000000       0.01222291 </v>
    <i name="Tr[quadrupol]">   -533.41199506 </i>
    <i name="Echarged">      0.00000000 </i>
    <i name="Edipol_quadrupol">      0.00000000 </i>
    <i name="Eion">      0.00000000 </i>
   </dipole>
   <energy>
    <i name="e_fr_energy">    -82.90655234 </i>
    <i name="e_wo_entrp">    -82.89658347 </i>
    <i name="e_0_energy">    -82.90406012 </i>
   </energy>
  </scstep>
  <scstep>
   <time name="dav">    9.52    9.53</time>
   <time name="total">   10.04   10.05</time>
   <dipole>
    <v name="dipole">      0.00000000       0.00000000       0.00513279 </v>
    <i name="Tr[quadrupol]">   -533.44260809 </i>
    <i name="Echarged">      0.00000000 </i>
    <i name="Edipol_quadrupol">      0.00000000 </i>
    <i name="Eion">      0.00000000 </i>
   </dipole>
   <energy>
    <i name="e_fr_energy">    -82.90603725 </i>
    <i name="e_wo_entrp">    -82.89754478 </i>
    <i name="e_0_energy">    -82.90391413 </i>
   </energy>
  </scstep>
  <scstep>
   <time name="dav">   10.09   10.10</time>
   <time name="total">   10.61   10.62</time>
   <dipole>
    <v name="dipole">      0.00000000       0.00000000       0.00527857 </v>
    <i name="Tr[quadrupol]">   -533.48355700 </i>
    <i name="Echarged">      0.00000000 </i>
    <i name="Edipol_quadrupol">      0.00000000 </i>
    <i name="Eion">      0.00000000 </i>
   </dipole>
   <energy>
    <i name="e_fr_energy">    -82.90533881 </i>
    <i name="e_wo_entrp">    -82.89548829 </i>
    <i name="e_0_energy">    -82.90287618 </i>
   </energy>
  </scstep>
  <scstep>
   <time name="dav">   10.04   10.05</time>
   <time name="total">   10.56   10.57</time>
   <dipole>
    <v name="dipole">      0.00000000       0.00000000       0.00061273 </v>
    <i name="Tr[quadrupol]">   -533.50800168 </i>
    <i name="Echarged">      0.00000000 </i>
    <i name="Edipol_quadrupol">      0.00000000 </i>
    <i name="Eion">      0.00000000 </i>
   </dipole>
   <energy>
    <i name="e_fr_energy">    -82.90535788 </i>
    <i name="e_wo_entrp">    -82.89653187 </i>
    <i name="e_0_energy">    -82.90315138 </i>
   </energy>
  </scstep>
  <scstep>
   <time name="dav">    9.36    9.44</time>
   <time name="total">    9.87    9.95</time>
   <dipole>
    <v name="dipole">      0.00000000       0.00000000      -0.00121143 </v>
    <i name="Tr[quadrupol]">   -533.53516039 </i>
    <i name="Echarged">      0.00000000 </i>
    <i name="Edipol_quadrupol">      0.00000000 </i>
    <i name="Eion">      0.00000000 </i>
   </dipole>
   <energy>
    <i name="e_fr_energy">    -82.90534144 </i>
    <i name="e_wo_entrp">    -82.89624118 </i>
    <i name="e_0_energy">    -82.90306637 </i>
   </energy>
  </scstep>
  <scstep>
   <time name="dav">    9.82    9.83</time>
   <time name="total">   10.35   10.36</time>
   <dipole>
    <v name="dipole">      0.00000000       0.00000000      -0.00150482 </v>
    <i name="Tr[quadrupol]">   -533.55488167 </i>
    <i name="Echarged">      0.00000000 </i>
    <i name="Edipol_quadrupol">      0.00000000 </i>
    <i name="Eion">      0.00000000 </i>
   </dipole>
   <energy>
    <i name="e_fr_energy">    -82.90534840 </i>
    <i name="e_wo_entrp">    -82.89587598 </i>
    <i name="e_0_energy">    -82.90298029 </i>
   </energy>
  </scstep>
  <scstep>
   <time name="dav">    9.32    9.32</time>
   <time name="total">    9.84    9.84</time>
   <dipole>
    <v name="dipole">      0.00000000       0.00000000      -0.00220663 </v>
    <i name="Tr[quadrupol]">   -533.57059207 </i>
    <i name="Echarged">      0.00000000 </i>
    <i name="Edipol_quadrupol">      0.00000000 </i>
    <i name="Eion">      0.00000000 </i>
   </dipole>
   <energy>
    <i name="e_fr_energy">    -82.90547156 </i>
    <i name="e_wo_entrp">    -82.89594776 </i>
    <i name="e_0_energy">    -82.90309061 </i>
   </energy>
  </scstep>
  <scstep>
   <time name="dav">    8.43    8.53</time>
   <time name="total">    8.95    9.05</time>
   <dipole>
    <v name="dipole">      0.00000000       0.00000000      -0.00266535 </v>
    <i name="Tr[quadrupol]">   -533.58048701 </i>
    <i name="Echarged">      0.00000000 </i>
    <i name="Edipol_quadrupol">      0.00000000 </i>
    <i name="Eion">      0.00000000 </i>
   </dipole>
   <energy>
    <i name="e_fr_energy">    -82.90556936 </i>
    <i name="e_wo_entrp">    -82.89608056 </i>
    <i name="e_0_energy">    -82.90319716 </i>
   </energy>
  </scstep>
  <scstep>
   <time name="dav">    8.55    8.56</time>
   <time name="total">    9.07    9.08</time>
   <dipole>
    <v name="dipole">      0.00000000       0.00000000      -0.00339162 </v>
    <i name="Tr[quadrupol]">   -533.59513886 </i>
    <i name="Echarged">      0.00000000 </i>
    <i name="Edipol_quadrupol">      0.00000000 </i>
    <i name="Eion">      0.00000000 </i>
   </dipole>
   <energy>
    <i name="e_fr_energy">    -82.90571493 </i>
    <i name="e_wo_entrp">    -82.89630267 </i>
    <i name="e_0_energy">    -82.90336187 </i>
   </energy>
  </scstep>
  <scstep>
   <time name="dav">    8.43    8.44</time>
   <time name="total">    8.96    8.96</time>
   <dipole>
    <v name="dipole">      0.00000000       0.00000000      -0.00458976 </v>
    <i name="Tr[quadrupol]">   -533.61248214 </i>
    <i name="Echarged">      0.00000000 </i>
    <i name="Edipol_quadrupol">      0.00000000 </i>
    <i name="Eion">      0.00000000 </i>
   </dipole>
   <energy>
    <i name="e_fr_energy">    -82.90584782 </i>
    <i name="e_wo_entrp">    -82.89651532 </i>
    <i name="e_0_energy">    -82.90351470 </i>
   </energy>
  </scstep>
  <scstep>
   <time name="dav">    7.79    7.79</time>
   <time name="total">    8.31    8.32</time>
   <dipole>
    <v name="dipole">      0.00000000       0.00000000      -0.00498339 </v>
    <i name="Tr[quadrupol]">   -533.62026692 </i>
    <i name="Echarged">      0.00000000 </i>
    <i name="Edipol_quadrupol">      0.00000000 </i>
    <i name="Eion">      0.00000000 </i>
   </dipole>
   <energy>
    <i name="e_fr_energy">    -82.90587181 </i>
    <i name="e_wo_entrp">    -82.89646560 </i>
    <i name="e_0_energy">    -82.90352026 </i>
   </energy>
  </scstep>
  <scstep>
   <time name="dav">    8.08    8.09</time>
   <time name="total">    8.60    8.61</time>
   <dipole>
    <v name="dipole">      0.00000000       0.00000000      -0.00534862 </v>
    <i name="Tr[quadrupol]">   -533.62820690 </i>
    <i name="Echarged">      0.00000000 </i>
    <i name="Edipol_quadrupol">      0.00000000 </i>
    <i name="Eion">      0.00000000 </i>
   </dipole>
   <energy>
    <i name="e_fr_energy">    -82.90588822 </i>
    <i name="e_wo_entrp">    -82.89640603 </i>
    <i name="e_0_energy">    -82.90351767 </i>
   </energy>
  </scstep>
  <scstep>
   <time name="dav">    8.02    8.02</time>
   <time name="total">    8.54    8.55</time>
   <dipole>
    <v name="dipole">      0.00000000       0.00000000      -0.00636578 </v>
    <i name="Tr[quadrupol]">   -533.64135613 </i>
    <i name="Echarged">      0.00000000 </i>
    <i name="Edipol_quadrupol">      0.00000000 </i>
    <i name="Eion">      0.00000000 </i>
   </dipole>
   <energy>
    <i name="e_fr_energy">    -82.90589302 </i>
    <i name="e_wo_entrp">    -82.89647272 </i>
    <i name="e_0_energy">    -82.90353795 </i>
   </energy>
  </scstep>
  <scstep>
   <time name="dav">    5.79    5.79</time>
   <time name="total">    5.82    5.83</time>
   <dipole>
    <v name="dipole">      0.00000000       0.00000000      -0.00675611 </v>
    <i name="Tr[quadrupol]">   -533.64619476 </i>
    <i name="Echarged">      0.00000000 </i>
    <i name="Edipol_quadrupol">      0.00000000 </i>
    <i name="Eion">      0.00000000 </i>
   </dipole>
   <energy>
    <i name="alphaZ">    483.21663823 </i>
    <i name="ewald">  36358.83673665 </i>
    <i name="hartreedc"> -47268.51438949 </i>
    <i name="XCdc">    173.90726969 </i>
    <i name="pawpsdc">   8585.59584200 </i>
    <i name="pawaedc">  -8561.76933812 </i>
    <i name="eentropy">     -0.00943091 </i>
    <i name="bandstr">   -529.53896338 </i>
    <i name="atom">  10675.36974215 </i>
    <i name="e_fr_energy">    -82.90589319 </i>
    <i name="e_wo_entrp">    -82.89646228 </i>
    <i name="e_0_energy">    -82.90353546 </i>
   </energy>
  </scstep>
  <structure>
   <crystal>
    <varray name="basis" >
     <v>       4.88428255       0.00000000       0.00000000 </v>
     <v>       2.44214127       4.22991277       0.00000000 </v>
     <v>       0.00000000       0.00000000      22.10741862 </v>
    </varray>
    <i name="volume">    456.74123834 </i>
    <varray name="rec_basis" >
     <v>       0.20473836      -0.11820575       0.00000000 </v>
     <v>      -0.00000000       0.23641149       0.00000000 </v>
     <v>       0.00000000       0.00000000       0.04523368 </v>
    </varray>
   </crystal>
   <varray name="positions" >
    <v>       0.30286415       0.49410690       0.00209390 </v>
    <v>       0.63619748       0.82744023       0.00209390 </v>
    <v>       0.96953081       0.16077357       0.00209390 </v>
    <v>       0.63619748       0.49410690       0.10624323 </v>
    <v>       0.96953081       0.82744023       0.10624323 </v>
    <v>       0.30286415       0.16077357       0.10624323 </v>
    <v>       0.30286415       0.49410690       0.28690755 </v>
    <v>       0.63619748       0.82744023       0.28690755 </v>
    <v>       0.96953081       0.16077357       0.28690755 </v>
    <v>       0.96953081       0.49410690       0.19560977 </v>
    <v>       0.30286415       0.82744023       0.19560977 </v>
    <v>       0.63619748       0.16077357       0.19560977 </v>
    <v>       0.84319831       0.03753600       0.39709390 </v>
    <v>       0.67774055       0.86366202       0.38338298 </v>
    <v>       0.05850993       0.86089080       0.40803909 </v>
   </varray>
  </structure>
  <varray name="forces" >
   <v>      -0.00664839      -0.00423996      -0.17349005 </v>
   <v>      -0.02887738       0.00073943      -0.29198456 </v>
   <v>       0.00399600       0.00399472      -0.21993849 </v>
   <v>       0.00735377       0.00642243       0.23093529 </v>
   <v>      -0.08298639       0.00288663       0.22768684 </v>
   <v>       0.00948177      -0.01971083       0.22019238 </v>
   <v>       0.01995668       0.02409453      -0.46189563 </v>
   <v>       0.25099865      -0.02334816       1.07286587 </v>
   <v>      -0.03533660      -0.01570515       0.09476192 </v>
   <v>      -0.19040544       0.02490264       0.09273896 </v>
   <v>       0.26852807       0.09962826       0.08339055 </v>
   <v>      -0.06984761      -0.06456663      -0.20321562 </v>
   <v>      -0.02862761      -0.71168405      -0.04299882 </v>
   <v>       0.25406737       0.19075403      -0.47411254 </v>
   <v>      -0.37165288       0.48583212      -0.15493611 </v>
  </varray>
  <varray name="stress" >
   <v>     -49.41840527      -1.17573134      -0.16086919 </v>
   <v>      -1.17573130     -46.53563144      -0.37246081 </v>
   <v>      -0.16086916      -0.37246074      -1.27809795 </v>
  </varray>
  <energy>
   <i name="e_fr_energy">    -82.90589319 </i>
   <i name="e_wo_entrp">    -82.90353546 </i>
   <i name="e_0_energy">     -0.00943091 </i>
  </energy>
  <time name="totalsc">  321.79  323.45</time>
 </calculation>
 <calculation>
  <scstep>
   <time name="dav">    7.32    7.35</time>
   <time name="total">    7.84    7.87</time>
   <dipole>
    <v name="dipole">      0.00000000       0.00000000      -0.00701686 </v>
    <i name="Tr[quadrupol]">   -533.41518111 </i>
    <i name="Echarged">      0.00000000 </i>
    <i name="Edipol_quadrupol">      0.00000000 </i>
    <i name="Eion">      0.00000000 </i>
   </dipole>
   <energy>
    <i name="alphaZ">    483.20312339 </i>
    <i name="ewald">  36355.10996014 </i>
    <i name="hartreedc"> -47263.09129379 </i>
    <i name="XCdc">    173.98753326 </i>
    <i name="pawpsdc">   8585.60163825 </i>
    <i name="pawaedc">  -8561.77484160 </i>
    <i name="eentropy">     -0.00832366 </i>
    <i name="bandstr">   -531.33275979 </i>
    <i name="atom">  10675.36974215 </i>
    <i name="e_fr_energy">    -82.93522166 </i>
    <i name="e_wo_entrp">    -82.92689801 </i>
    <i name="e_0_energy">    -82.93314075 </i>
   </energy>
  </scstep>
  <scstep>
   <time name="dav">    9.60    9.66</time>
   <time name="total">   10.12   10.18</time>
   <dipole>
    <v name="dipole">      0.00000000       0.00000000      -0.01385211 </v>
    <i name="Tr[quadrupol]">   -533.41142364 </i>
    <i name="Echarged">      0.00000000 </i>
    <i name="Edipol_quadrupol">      0.00000000 </i>
    <i name="Eion">      0.00000000 </i>
   </dipole>
   <energy>
    <i name="e_fr_energy">    -82.94925799 </i>
    <i name="e_wo_entrp">    -82.94486048 </i>
    <i name="e_0_energy">    -82.94815861 </i>
   </energy>
  </scstep>
  <scstep>
   <time name="dav">   10.55   10.60</time>
   <time name="total">   11.07   11.12</time>
   <dipole>
    <v name="dipole">      0.00000000       0.00000000       0.00805246 </v>
    <i name="Tr[quadrupol]">   -533.46276767 </i>
    <i name="Echarged">      0.00000000 </i>
    <i name="Edipol_quadrupol">      0.00000000 </i>
    <i name="Eion">      0.00000000 </i>
   </dipole>
   <energy>
    <i name="e_fr_energy">    -82.96886662 </i>
    <i name="e_wo_entrp">    -82.95427596 </i>
    <i name="e_0_energy">    -82.96521895 </i>
   </energy>
  </scstep>
  <scstep>
   <time name="dav">    9.83    9.87</time>
   <time name="total">   10.35   10.40</time>
   <dipole>
    <v name="dipole">      0.00000000       0.00000000      -0.00733060 </v>
    <i name="Tr[quadrupol]">   -533.41018543 </i>
    <i name="Echarged">      0.00000000 </i>
    <i name="Edipol_quadrupol">      0.00000000 </i>
    <i name="Eion">      0.00000000 </i>
   </dipole>
   <energy>
    <i name="e_fr_energy">    -82.95031433 </i>
    <i name="e_wo_entrp">    -82.93921280 </i>
    <i name="e_0_energy">    -82.94753895 </i>
   </energy>
  </scstep>
  <scstep>
   <time name="dav">   10.41   10.46</time>
   <time name="total">   10.93   10.98</time>
   <dipole>
    <v name="dipole">      0.00000000       0.00000000      -0.01276275 </v>
    <i name="Tr[quadrupol]">   -533.43836872 </i>
    <i name="Echarged">      0.00000000 </i>
    <i name="Edipol_quadrupol">      0.00000000 </i>
    <i name="Eion">      0.00000000 </i>
   </dipole>
   <energy>
    <i name="e_fr_energy">    -82.94576686 </i>
    <i name="e_wo_entrp">    -82.93926719 </i>
    <i name="e_0_energy">    -82.94414194 </i>
   </energy>
  </scstep>
  <scstep>
   <time name="dav">   10.02   10.07</time>
   <time name="total">   10.55   10.59</time>
   <dipole>
    <v name="dipole">      0.00000000       0.00000000      -0.01318460 </v>
    <i name="Tr[quadrupol]">   -533.44439519 </i>
    <i name="Echarged">      0.00000000 </i>
    <i name="Edipol_quadrupol">      0.00000000 </i>
    <i name="Eion">      0.00000000 </i>
   </dipole>
   <energy>
    <i name="e_fr_energy">    -82.94612986 </i>
    <i name="e_wo_entrp">    -82.93947771 </i>
    <i name="e_0_energy">    -82.94446682 </i>
   </energy>
  </scstep>
  <scstep>
   <time name="dav">   10.07   10.11</time>
   <time name="total">   10.59   10.63</time>
   <dipole>
    <v name="dipole">      0.00000000       0.00000000      -0.01015222 </v>
    <i name="Tr[quadrupol]">   -533.44837134 </i>
    <i name="Echarged">      0.00000000 </i>
    <i name="Edipol_quadrupol">      0.00000000 </i>
    <i name="Eion">      0.00000000 </i>
   </dipole>
   <energy>
    <i name="e_fr_energy">    -82.94571821 </i>
    <i name="e_wo_entrp">    -82.93680358 </i>
    <i name="e_0_energy">    -82.94348955 </i>
   </energy>
  </scstep>
  <scstep>
   <time name="dav">    9.83    9.88</time>
   <time name="total">   10.35   10.41</time>
   <dipole>
    <v name="dipole">      0.00000000       0.00000000      -0.01183905 </v>
    <i name="Tr[quadrupol]">   -533.44565604 </i>
    <i name="Echarged">      0.00000000 </i>
    <i name="Edipol_quadrupol">      0.00000000 </i>
    <i name="Eion">      0.00000000 </i>
   </dipole>
   <energy>
    <i name="e_fr_energy">    -82.94497577 </i>
    <i name="e_wo_entrp">    -82.93705529 </i>
    <i name="e_0_energy">    -82.94299565 </i>
   </energy>
  </scstep>
  <scstep>
   <time name="dav">   10.46   10.51</time>
   <time name="total">   10.98   11.03</time>
   <dipole>
    <v name="dipole">      0.00000000       0.00000000      -0.01169908 </v>
    <i name="Tr[quadrupol]">   -533.45626687 </i>
    <i name="Echarged">      0.00000000 </i>
    <i name="Edipol_quadrupol">      0.00000000 </i>
    <i name="Eion">      0.00000000 </i>
   </dipole>
   <energy>
    <i name="e_fr_energy">    -82.94480193 </i>
    <i name="e_wo_entrp">    -82.93664175 </i>
    <i name="e_0_energy">    -82.94276189 </i>
   </energy>
  </scstep>
  <scstep>
   <time name="dav">   10.03   10.04</time>
   <time name="total">   10.55   10.57</time>
   <dipole>
    <v name="dipole">      0.00000000       0.00000000      -0.01194116 </v>
    <i name="Tr[quadrupol]">   -533.45378932 </i>
    <i name="Echarged">      0.00000000 </i>
    <i name="Edipol_quadrupol">      0.00000000 </i>
    <i name="Eion">      0.00000000 </i>
   </dipole>
   <energy>
    <i name="e_fr_energy">    -82.94481595 </i>
    <i name="e_wo_entrp">    -82.93669997 </i>
    <i name="e_0_energy">    -82.94278696 </i>
   </energy>
  </scstep>
  <scstep>
   <time name="dav">   10.07   10.07</time>
   <time name="total">   10.59   10.59</time>
   <dipole>
    <v name="dipole">      0.00000000       0.00000000      -0.01223414 </v>
    <i name="Tr[quadrupol]">   -533.45304979 </i>
    <i name="Echarged">      0.00000000 </i>
    <i name="Edipol_quadrupol">      0.00000000 </i>
    <i name="Eion">      0.00000000 </i>
   </dipole>
   <energy>
    <i name="e_fr_energy">    -82.94479184 </i>
    <i name="e_wo_entrp">    -82.93683295 </i>
    <i name="e_0_energy">    -82.94280211 </i>
   </energy>
  </scstep>
  <scstep>
   <time name="dav">    9.81    9.82</time>
   <time name="total">   10.34   10.34</time>
   <dipole>
    <v name="dipole">      0.00000000       0.00000000      -0.01212760 </v>
    <i name="Tr[quadrupol]">   -533.45457702 </i>
    <i name="Echarged">      0.00000000 </i>
    <i name="Edipol_quadrupol">      0.00000000 </i>
    <i name="Eion">      0.00000000 </i>
   </dipole>
   <energy>
    <i name="e_fr_energy">    -82.94477471 </i>
    <i name="e_wo_entrp">    -82.93679493 </i>
    <i name="e_0_energy">    -82.94277977 </i>
   </energy>
  </scstep>
  <scstep>
   <time name="dav">    8.54    8.54</time>
   <time name="total">    9.06    9.07</time>
   <dipole>
    <v name="dipole">      0.00000000       0.00000000      -0.01248965 </v>
    <i name="Tr[quadrupol]">   -533.45590193 </i>
    <i name="Echarged">      0.00000000 </i>
    <i name="Edipol_quadrupol">      0.00000000 </i>
    <i name="Eion">      0.00000000 </i>
   </dipole>
   <energy>
    <i name="e_fr_energy">    -82.94477576 </i>
    <i name="e_wo_entrp">    -82.93687111 </i>
    <i name="e_0_energy">    -82.94279960 </i>
   </energy>
  </scstep>
  <scstep>
   <time name="dav">    6.22    6.23</time>
   <time name="total">    6.75    6.75</time>
   <dipole>
    <v name="dipole">      0.00000000       0.00000000      -0.01258032 </v>
    <i name="Tr[quadrupol]">   -533.45708438 </i>
    <i name="Echarged">      0.00000000 </i>
    <i name="Edipol_quadrupol">      0.00000000 </i>
    <i name="Eion">      0.00000000 </i>
   </dipole>
   <energy>
    <i name="e_fr_energy">    -82.94477756 </i>
    <i name="e_wo_entrp">    -82.93686670 </i>
    <i name="e_0_energy">    -82.94279985 </i>
   </energy>
  </scstep>
  <scstep>
   <time name="dav">    5.64    5.64</time>
   <time name="total">    6.21    6.22</time>
   <dipole>
    <v name="dipole">      0.00000000       0.00000000      -0.01263333 </v>
    <i name="Tr[quadrupol]">   -533.45767449 </i>
    <i name="Echarged">      0.00000000 </i>
    <i name="Edipol_quadrupol">      0.00000000 </i>
    <i name="Eion">      0.00000000 </i>
   </dipole>
   <energy>
    <i name="e_fr_energy">    -82.94477863 </i>
    <i name="e_wo_entrp">    -82.93685956 </i>
    <i name="e_0_energy">    -82.94279886 </i>
   </energy>
  </scstep>
  <scstep>
   <time name="dav">    5.73    5.73</time>
   <time name="total">    6.25    6.25</time>
   <dipole>
    <v name="dipole">      0.00000000       0.00000000      -0.01279253 </v>
    <i name="Tr[quadrupol]">   -533.45898333 </i>
    <i name="Echarged">      0.00000000 </i>
    <i name="Edipol_quadrupol">      0.00000000 </i>
    <i name="Eion">      0.00000000 </i>
   </dipole>
   <energy>
    <i name="e_fr_energy">    -82.94478119 </i>
    <i name="e_wo_entrp">    -82.93685535 </i>
    <i name="e_0_energy">    -82.94279973 </i>
   </energy>
  </scstep>
  <scstep>
   <time name="dav">    5.64    5.65</time>
   <time name="total">    6.16    6.16</time>
   <dipole>
    <v name="dipole">      0.00000000       0.00000000      -0.01288614 </v>
    <i name="Tr[quadrupol]">   -533.45975745 </i>
    <i name="Echarged">      0.00000000 </i>
    <i name="Edipol_quadrupol">      0.00000000 </i>
    <i name="Eion">      0.00000000 </i>
   </dipole>
   <energy>
    <i name="e_fr_energy">    -82.94478234 </i>
    <i name="e_wo_entrp">    -82.93685067 </i>
    <i name="e_0_energy">    -82.94279942 </i>
   </energy>
  </scstep>
  <scstep>
   <time name="dav">    5.51    5.52</time>
   <time name="total">    5.55    5.56</time>
   <dipole>
    <v name="dipole">      0.00000000       0.00000000      -0.01296433 </v>
    <i name="Tr[quadrupol]">   -533.46036564 </i>
    <i name="Echarged">      0.00000000 </i>
    <i name="Edipol_quadrupol">      0.00000000 </i>
    <i name="Eion">      0.00000000 </i>
   </dipole>
   <energy>
    <i name="alphaZ">    482.89070527 </i>
    <i name="ewald">  36355.10996014 </i>
    <i name="hartreedc"> -47265.49065290 </i>
    <i name="XCdc">    174.05414046 </i>
    <i name="pawpsdc">   8590.13368521 </i>
    <i name="pawaedc">  -8566.31737053 </i>
    <i name="eentropy">     -0.00793402 </i>
    <i name="bandstr">   -528.68705887 </i>
    <i name="atom">  10675.36974215 </i>
    <i name="e_fr_energy">    -82.94478310 </i>
    <i name="e_wo_entrp">    -82.93684907 </i>
    <i name="e_0_energy">    -82.94279959 </i>
   </energy>
  </scstep>
  <structure>
   <crystal>
    <varray name="basis" >
     <v>       4.88428255       0.00000000       0.00000000 </v>
     <v>       2.44214127       4.22991277       0.00000000 </v>
     <v>       0.00000000       0.00000000      22.10741862 </v>
    </varray>
    <i name="volume">    456.74123834 </i>
    <varray name="rec_basis" >
     <v>       0.20473836      -0.11820575       0.00000000 </v>
     <v>      -0.00000000       0.23641149       0.00000000 </v>
     <v>       0.00000000       0.00000000       0.04523368 </v>
    </varray>
   </crystal>
   <varray name="positions" >
    <v>       0.30286415       0.49410690       0.00209390 </v>
    <v>       0.63619748       0.82744023       0.00209390 </v>
    <v>       0.96953081       0.16077357       0.00209390 </v>
    <v>       0.63619748       0.49410690       0.10624323 </v>
    <v>       0.96953081       0.82744023       0.10624323 </v>
    <v>       0.30286415       0.16077357       0.10624323 </v>
    <v>       0.30288803       0.49421682       0.28650437 </v>
    <v>       0.63724239       0.82733372       0.28784403 </v>
    <v>       0.96942703       0.16070192       0.28699026 </v>
    <v>       0.96872175       0.49422051       0.19569072 </v>
    <v>       0.30369780       0.82789474       0.19568256 </v>
    <v>       0.63606880       0.16047901       0.19543239 </v>
    <v>       0.84470857       0.03428926       0.39705636 </v>
    <v>       0.67830922       0.86453225       0.38296914 </v>
    <v>       0.05593339       0.86310719       0.40790385 </v>
   </varray>
  </structure>
  <varray name="forces" >
   <v>      -0.00776630      -0.00281993      -0.17505414 </v>
   <v>      -0.03032379      -0.00122962      -0.29214954 </v>
   <v>       0.00477702       0.00318272      -0.22098742 </v>
   <v>       0.00461560       0.01444666       0.22538253 </v>
   <v>      -0.07210306      -0.00971823       0.23603683 </v>
   <v>      -0.00228847      -0.00982679       0.21352993 </v>
   <v>       0.03371274       0.01760703      -0.41161361 </v>
   <v>       0.21913520      -0.01597802       0.78462353 </v>
   <v>      -0.01922699      -0.01265419       0.06254582 </v>
   <v>      -0.19993433       0.04575233       0.10054304 </v>
   <v>       0.28463246       0.10324211       0.10282189 </v>
   <v>      -0.06720982      -0.09938662      -0.13597587 </v>
   <v>      -0.38257191       0.20907060      -0.21103033 </v>
   <v>       0.08192122       0.02548871      -0.33448075 </v>
   <v>       0.15263044      -0.26717676       0.05580808 </v>
  </varray>
  <varray name="stress" >
   <v>     -47.73346442      -2.01255806       0.49340691 </v>
   <v>      -2.01255807     -44.39088990      -0.77765058 </v>
   <v>       0.49340689      -0.77765060      -0.18543826 </v>
  </varray>
  <energy>
   <i name="e_fr_energy">    -82.94478310 </i>
   <i name="e_wo_entrp">    -82.94279959 </i>
   <i name="e_0_energy">     -0.00793402 </i>
  </energy>
  <time name="totalsc">  169.12  169.61</time>
 </calculation>
 <calculation>
  <scstep>
   <time name="dav">    7.41    7.41</time>
   <time name="total">    7.95    7.96</time>
   <dipole>
    <v name="dipole">      0.00000000       0.00000000      -0.01312731 </v>
    <i name="Tr[quadrupol]">   -533.32340656 </i>
    <i name="Echarged">      0.00000000 </i>
    <i name="Edipol_quadrupol">      0.00000000 </i>
    <i name="Eion">      0.00000000 </i>
   </dipole>
   <energy>
    <i name="alphaZ">    482.88235680 </i>
    <i name="ewald">  36352.88792777 </i>
    <i name="hartreedc"> -47262.19749885 </i>
    <i name="XCdc">    174.10429829 </i>
    <i name="pawpsdc">   8590.13094095 </i>
    <i name="pawaedc">  -8566.31473948 </i>
    <i name="eentropy">     -0.00721991 </i>
    <i name="bandstr">   -529.80394231 </i>
    <i name="atom">  10675.36974215 </i>
    <i name="e_fr_energy">    -82.94813460 </i>
    <i name="e_wo_entrp">    -82.94091469 </i>
    <i name="e_0_energy">    -82.94632962 </i>
   </energy>
  </scstep>
  <scstep>
   <time name="dav">    9.55    9.55</time>
   <time name="total">   10.07   10.07</time>
   <dipole>
    <v name="dipole">      0.00000000       0.00000000      -0.01728352 </v>
    <i name="Tr[quadrupol]">   -533.32247171 </i>
    <i name="Echarged">      0.00000000 </i>
    <i name="Edipol_quadrupol">      0.00000000 </i>
    <i name="Eion">      0.00000000 </i>
   </dipole>
   <energy>
    <i name="e_fr_energy">    -82.95304131 </i>
    <i name="e_wo_entrp">    -82.94811733 </i>
    <i name="e_0_energy">    -82.95181032 </i>
   </energy>
  </scstep>
  <scstep>
   <time name="dav">   10.27   10.28</time>
   <time name="total">   10.86   10.91</time>
   <dipole>
    <v name="dipole">      0.00000000       0.00000000      -0.00432602 </v>
    <i name="Tr[quadrupol]">   -533.34988747 </i>
    <i name="Echarged">      0.00000000 </i>
    <i name="Edipol_quadrupol">      0.00000000 </i>
    <i name="Eion">      0.00000000 </i>
   </dipole>
   <energy>
    <i name="e_fr_energy">    -82.96008595 </i>
    <i name="e_wo_entrp">    -82.94894062 </i>
    <i name="e_0_energy">    -82.95729962 </i>
   </energy>
  </scstep>
  <scstep>
   <time name="dav">   13.04   13.31</time>
   <time name="total">   13.57   13.84</time>
   <dipole>
    <v name="dipole">      0.00000000       0.00000000      -0.01363023 </v>
    <i name="Tr[quadrupol]">   -533.31941552 </i>
    <i name="Echarged">      0.00000000 </i>
    <i name="Edipol_quadrupol">      0.00000000 </i>
    <i name="Eion">      0.00000000 </i>
   </dipole>
   <energy>
    <i name="e_fr_energy">    -82.95366409 </i>
    <i name="e_wo_entrp">    -82.94484261 </i>
    <i name="e_0_energy">    -82.95145872 </i>
   </energy>
  </scstep>
  <scstep>
   <time name="dav">   10.32   10.34</time>
   <time name="total">   10.84   10.86</time>
   <dipole>
    <v name="dipole">      0.00000000       0.00000000      -0.01632977 </v>
    <i name="Tr[quadrupol]">   -533.33906121 </i>
    <i name="Echarged">      0.00000000 </i>
    <i name="Edipol_quadrupol">      0.00000000 </i>
    <i name="Eion">      0.00000000 </i>
   </dipole>
   <energy>
    <i name="e_fr_energy">    -82.95182790 </i>
    <i name="e_wo_entrp">    -82.94546060 </i>
    <i name="e_0_energy">    -82.95023608 </i>
   </energy>
  </scstep>
  <scstep>
   <time name="dav">   10.14   10.14</time>
   <time name="total">   10.66   10.67</time>
   <dipole>
    <v name="dipole">      0.00000000       0.00000000      -0.01772061 </v>
    <i name="Tr[quadrupol]">   -533.34118586 </i>
    <i name="Echarged">      0.00000000 </i>
    <i name="Edipol_quadrupol">      0.00000000 </i>
    <i name="Eion">      0.00000000 </i>
   </dipole>
   <energy>
    <i name="e_fr_energy">    -82.95241823 </i>
    <i name="e_wo_entrp">    -82.94680644 </i>
    <i name="e_0_energy">    -82.95101529 </i>
   </energy>
  </scstep>
  <scstep>
   <time name="dav">   10.12   10.13</time>
   <time name="total">   10.65   10.65</time>
   <dipole>
    <v name="dipole">      0.00000000       0.00000000      -0.01527486 </v>
    <i name="Tr[quadrupol]">   -533.34472080 </i>
    <i name="Echarged">      0.00000000 </i>
    <i name="Edipol_quadrupol">      0.00000000 </i>
    <i name="Eion">      0.00000000 </i>
   </dipole>
   <energy>
    <i name="e_fr_energy">    -82.95173954 </i>
    <i name="e_wo_entrp">    -82.94424606 </i>
    <i name="e_0_energy">    -82.94986617 </i>
   </energy>
  </scstep>
  <scstep>
   <time name="dav">    9.80    9.81</time>
   <time name="total">   10.33   10.33</time>
   <dipole>
    <v name="dipole">      0.00000000       0.00000000      -0.01605700 </v>
    <i name="Tr[quadrupol]">   -533.34364427 </i>
    <i name="Echarged">      0.00000000 </i>
    <i name="Edipol_quadrupol">      0.00000000 </i>
    <i name="Eion">      0.00000000 </i>
   </dipole>
   <energy>
    <i name="e_fr_energy">    -82.95152511 </i>
    <i name="e_wo_entrp">    -82.94449266 </i>
    <i name="e_0_energy">    -82.94976699 </i>
   </energy>
  </scstep>
  <scstep>
   <time name="dav">   10.07   10.08</time>
   <time name="total">   10.60   10.61</time>
   <dipole>
    <v name="dipole">      0.00000000       0.00000000      -0.01622000 </v>
    <i name="Tr[quadrupol]">   -533.34556256 </i>
    <i name="Echarged">      0.00000000 </i>
    <i name="Edipol_quadrupol">      0.00000000 </i>
    <i name="Eion">      0.00000000 </i>
   </dipole>
   <energy>
    <i name="e_fr_energy">    -82.95150091 </i>
    <i name="e_wo_entrp">    -82.94444444 </i>
    <i name="e_0_energy">    -82.94973679 </i>
   </energy>
  </scstep>
  <scstep>
   <time name="dav">   10.07   10.08</time>
   <time name="total">   10.59   10.59</time>
   <dipole>
    <v name="dipole">      0.00000000       0.00000000      -0.01609578 </v>
    <i name="Tr[quadrupol]">   -533.34715549 </i>
    <i name="Echarged">      0.00000000 </i>
    <i name="Edipol_quadrupol">      0.00000000 </i>
    <i name="Eion">      0.00000000 </i>
   </dipole>
   <energy>
    <i name="e_fr_energy">    -82.95148757 </i>
    <i name="e_wo_entrp">    -82.94432466 </i>
    <i name="e_0_energy">    -82.94969684 </i>
   </energy>
  </scstep>
  <scstep>
   <time name="dav">    9.89    9.90</time>
   <time name="total">   10.42   10.42</time>
   <dipole>
    <v name="dipole">      0.00000000       0.00000000      -0.01639739 </v>
    <i name="Tr[quadrupol]">   -533.34608853 </i>
    <i name="Echarged">      0.00000000 </i>
    <i name="Edipol_quadrupol">      0.00000000 </i>
    <i name="Eion">      0.00000000 </i>
   </dipole>
   <energy>
    <i name="e_fr_energy">    -82.95147144 </i>
    <i name="e_wo_entrp">    -82.94445163 </i>
    <i name="e_0_energy">    -82.94971649 </i>
   </energy>
  </scstep>
  <scstep>
   <time name="dav">    7.63    7.63</time>
   <time name="total">    8.15    8.16</time>
   <dipole>
    <v name="dipole">      0.00000000       0.00000000      -0.01637547 </v>
    <i name="Tr[quadrupol]">   -533.34695118 </i>
    <i name="Echarged">      0.00000000 </i>
    <i name="Edipol_quadrupol">      0.00000000 </i>
    <i name="Eion">      0.00000000 </i>
   </dipole>
   <energy>
    <i name="e_fr_energy">    -82.95146892 </i>
    <i name="e_wo_entrp">    -82.94445030 </i>
    <i name="e_0_energy">    -82.94971427 </i>
   </energy>
  </scstep>
  <scstep>
   <time name="dav">    6.13    6.13</time>
   <time name="total">    6.65    6.65</time>
   <dipole>
    <v name="dipole">      0.00000000       0.00000000      -0.01659954 </v>
    <i name="Tr[quadrupol]">   -533.34776905 </i>
    <i name="Echarged">      0.00000000 </i>
    <i name="Edipol_quadrupol">      0.00000000 </i>
    <i name="Eion">      0.00000000 </i>
   </dipole>
   <energy>
    <i name="e_fr_energy">    -82.95147060 </i>
    <i name="e_wo_entrp">    -82.94448938 </i>
    <i name="e_0_energy">    -82.94972530 </i>
   </energy>
  </scstep>
  <scstep>
   <time name="dav">    5.60    5.61</time>
   <time name="total">    6.12    6.13</time>
   <dipole>
    <v name="dipole">      0.00000000       0.00000000      -0.01668964 </v>
    <i name="Tr[quadrupol]">   -533.34845309 </i>
    <i name="Echarged">      0.00000000 </i>
    <i name="Edipol_quadrupol">      0.00000000 </i>
    <i name="Eion">      0.00000000 </i>
   </dipole>
   <energy>
    <i name="e_fr_energy">    -82.95147193 </i>
    <i name="e_wo_entrp">    -82.94448912 </i>
    <i name="e_0_energy">    -82.94972623 </i>
   </energy>
  </scstep>
  <scstep>
   <time name="dav">    5.64    5.64</time>
   <time name="total">    5.67    5.68</time>
   <dipole>
    <v name="dipole">      0.00000000       0.00000000      -0.01672066 </v>
    <i name="Tr[quadrupol]">   -533.34881647 </i>
    <i name="Echarged">      0.00000000 </i>
    <i name="Edipol_quadrupol">      0.00000000 </i>
    <i name="Eion">      0.00000000 </i>
   </dipole>
   <energy>
    <i name="alphaZ">    482.69365096 </i>
    <i name="ewald">  36352.88792777 </i>
    <i name="hartreedc"> -47263.66100272 </i>
    <i name="XCdc">    174.14553300 </i>
    <i name="pawpsdc">   8593.15148297 </i>
    <i name="pawaedc">  -8569.34530055 </i>
    <i name="eentropy">     -0.00698899 </i>
    <i name="bandstr">   -528.18651703 </i>
    <i name="atom">  10675.36974215 </i>
    <i name="e_fr_energy">    -82.95147245 </i>
    <i name="e_wo_entrp">    -82.94448346 </i>
    <i name="e_0_energy">    -82.94972520 </i>
   </energy>
  </scstep>
  <structure>
   <crystal>
    <varray name="basis" >
     <v>       4.88428255       0.00000000       0.00000000 </v>
     <v>       2.44214127       4.22991277       0.00000000 </v>
     <v>       0.00000000       0.00000000      22.10741862 </v>
    </varray>
    <i name="volume">    456.74123834 </i>
    <varray name="rec_basis" >
     <v>       0.20473836      -0.11820575       0.00000000 </v>
     <v>      -0.00000000       0.23641149       0.00000000 </v>
     <v>       0.00000000       0.00000000       0.04523368 </v>
    </varray>
   </crystal>
   <varray name="positions" >
    <v>       0.30286415       0.49410690       0.00209390 </v>
    <v>       0.63619748       0.82744023       0.00209390 </v>
    <v>       0.96953081       0.16077357       0.00209390 </v>
    <v>       0.63619748       0.49410690       0.10624323 </v>
    <v>       0.96953081       0.82744023       0.10624323 </v>
    <v>       0.30286415       0.16077357       0.10624323 </v>
    <v>       0.30290242       0.49428304       0.28626147 </v>
    <v>       0.63787192       0.82726954       0.28840822 </v>
    <v>       0.96936450       0.16065875       0.28704009 </v>
    <v>       0.96823431       0.49428895       0.19573949 </v>
    <v>       0.30420006       0.82816857       0.19572641 </v>
    <v>       0.63599127       0.16030155       0.19532552 </v>
    <v>       0.84561846       0.03233321       0.39703375 </v>
    <v>       0.67865182       0.86505653       0.38271981 </v>
    <v>       0.05438111       0.86444250       0.40782237 </v>
   </varray>
  </structure>
  <varray name="forces" >
   <v>      -0.00841034      -0.00191662      -0.17596128 </v>
   <v>      -0.03107191      -0.00238596      -0.29201887 </v>
   <v>       0.00524291       0.00265103      -0.22152392 </v>
   <v>       0.00298695       0.01936521       0.22172595 </v>
   <v>      -0.06542579      -0.01740201       0.24039375 </v>
   <v>      -0.00941563      -0.00386546       0.20892164 </v>
   <v>       0.04203107       0.01370206      -0.38095831 </v>
   <v>       0.19721355      -0.01412806       0.59776877 </v>
   <v>      -0.00906028      -0.01041478       0.04313853 </v>
   <v>      -0.20534475       0.05767337       0.10479611 </v>
   <v>       0.29312405       0.10537124       0.11328257 </v>
   <v>      -0.06498111      -0.11917880      -0.09624028 </v>
   <v>      -0.64062383       0.81762703      -0.32917274 </v>
   <v>      -0.02487152      -0.07569748      -0.23669054 </v>
   <v>       0.51860665      -0.77140076       0.20253862 </v>
  </varray>
  <varray name="stress" >
   <v>     -46.48283188      -2.59468714       0.95282437 </v>
   <v>      -2.59468713     -42.92361521      -1.04118557 </v>
   <v>       0.95282436      -1.04118560       0.68296083 </v>
  </varray>
  <energy>
   <i name="e_fr_energy">    -82.95147245 </i>
   <i name="e_wo_entrp">    -82.94972520 </i>
   <i name="e_0_energy">     -0.00698899 </i>
  </energy>
  <time name="totalsc">  148.03  148.43</time>
 </calculation>
 <calculation>
  <scstep>
   <time name="dav">    7.34    7.35</time>
   <time name="total">    7.87    7.87</time>
   <dipole>
    <v name="dipole">      0.00000000       0.00000000      -0.01679753 </v>
    <i name="Tr[quadrupol]">   -533.38315565 </i>
    <i name="Echarged">      0.00000000 </i>
    <i name="Edipol_quadrupol">      0.00000000 </i>
    <i name="Eion">      0.00000000 </i>
   </dipole>
   <energy>
    <i name="alphaZ">    482.68991095 </i>
    <i name="ewald">  36352.70998846 </i>
    <i name="hartreedc"> -47263.41617189 </i>
    <i name="XCdc">    174.16369797 </i>
    <i name="pawpsdc">   8593.14866863 </i>
    <i name="pawaedc">  -8569.34237783 </i>
    <i name="eentropy">     -0.00658449 </i>
    <i name="bandstr">   -528.28688233 </i>
    <i name="atom">  10675.36974215 </i>
    <i name="e_fr_energy">    -82.97000838 </i>
    <i name="e_wo_entrp">    -82.96342388 </i>
    <i name="e_0_energy">    -82.96836225 </i>
   </energy>
  </scstep>
  <scstep>
   <time name="dav">    9.95    9.95</time>
   <time name="total">   10.47   10.48</time>
   <dipole>
    <v name="dipole">      0.00000000       0.00000000      -0.04068224 </v>
    <i name="Tr[quadrupol]">   -533.40226654 </i>
    <i name="Echarged">      0.00000000 </i>
    <i name="Edipol_quadrupol">      0.00000000 </i>
    <i name="Eion">      0.00000000 </i>
   </dipole>
   <energy>
    <i name="e_fr_energy">    -83.00038881 </i>
    <i name="e_wo_entrp">    -83.00473810 </i>
    <i name="e_0_energy">    -83.00147613 </i>
   </energy>
  </scstep>
  <scstep>
   <time name="dav">    9.88    9.88</time>
   <time name="total">   10.40   10.41</time>
   <dipole>
    <v name="dipole">      0.00000000       0.00000000      -0.01925473 </v>
    <i name="Tr[quadrupol]">   -533.43638030 </i>
[...]
       <r>   -5.6013    1.0000 </r>
       <r>   -5.3219    1.0000 </r>
       <r>   -5.2129    1.0000 </r>
       <r>   -5.0919    1.0000 </r>
       <r>   -4.7604    1.0000 </r>
       <r>   -4.6863    1.0000 </r>
       <r>   -4.5630    1.0000 </r>
       <r>   -4.5469    1.0000 </r>
       <r>   -4.4815    1.0000 </r>
       <r>   -4.2748    1.0000 </r>
       <r>   -4.1513    1.0000 </r>
       <r>   -4.0967    1.0000 </r>
       <r>   -3.8655    1.0000 </r>
       <r>   -3.7455    1.0000 </r>
       <r>   -3.6228    1.0000 </r>
       <r>   -3.6042    1.0000 </r>
       <r>   -3.5566    1.0000 </r>
       <r>   -3.4780    1.0000 </r>
       <r>   -3.3754    1.0000 </r>
       <r>   -3.3542    1.0000 </r>
       <r>   -3.2368    1.0000 </r>
       <r>   -3.0560    1.0000 </r>
       <r>   -2.9617    1.0000 </r>
       <r>   -2.8836    1.0000 </r>
       <r>   -2.7385    1.0000 </r>
       <r>   -2.7216    1.0000 </r>
       <r>   -2.5783    1.0000 </r>
       <r>   -2.4718    1.0000 </r>
       <r>   -2.2342    1.0000 </r>
       <r>   -2.1628    1.0000 </r>
       <r>   -2.0995    1.0000 </r>
       <r>   -1.9858    1.0000 </r>
       <r>   -1.9667    1.0000 </r>
       <r>   -1.7834    1.0000 </r>
       <r>   -1.7316    1.0000 </r>
       <r>   -1.6448    1.0000 </r>
       <r>   -1.6082    1.0000 </r>
       <r>   -1.5486    1.0000 </r>
       <r>   -1.4540    1.0000 </r>
       <r>   -1.2991    1.0000 </r>
       <r>   -1.2503    1.0000 </r>
       <r>   -1.1613    0.9999 </r>
       <r>   -1.1111    0.9997 </r>
       <r>   -1.0914    0.9995 </r>
       <r>   -1.0281    0.9984 </r>
       <r>   -0.9978    0.9974 </r>
       <r>   -0.9155    0.9951 </r>
       <r>   -0.8744    0.9970 </r>
       <r>   -0.8345    1.0043 </r>
       <r>   -0.7722    1.0288 </r>
       <r>   -0.6798    1.0453 </r>
       <r>   -0.5872    0.8524 </r>
       <r>   -0.5090    0.4770 </r>
       <r>   -0.4674    0.2671 </r>
       <r>   -0.4169    0.0717 </r>
       <r>   -0.2928   -0.0459 </r>
       <r>   -0.1512    0.0031 </r>
       <r>   -0.1168    0.0049 </r>
       <r>    0.4115    0.0000 </r>
       <r>    0.4802    0.0000 </r>
       <r>    0.7256    0.0000 </r>
       <r>    1.7049    0.0000 </r>
       <r>    2.6635    0.0000 </r>
       <r>    3.2376    0.0000 </r>
       <r>    3.5502    0.0000 </r>
       <r>    3.8577    0.0000 </r>
      </set>
     </set>
    </set>
   </array>
  </eigenvalues>
  <separator name="orbital magnetization" >
   <v name="MAGDIPOLOUT">      0.00000000      0.00000000      0.00000000</v>
  </separator>
  <dos>
   <i name="efermi">     -0.51329244 </i>
   <total>
    <array>
     <dimension dim="1">gridpoints</dimension>
     <dimension dim="2">spin</dimension>
     <field>energy</field>
     <field>total</field>
     <field>integrated</field>
     <set>
      <set comment="spin 1">
       <r>   -25.4047     0.0000     0.0000 </r>
       <r>   -25.2977     0.0000     0.0000 </r>
       <r>   -25.1907     0.0000     0.0000 </r>
       <r>   -25.0836     0.0000     0.0000 </r>
       <r>   -24.9766     0.0000     0.0000 </r>
       <r>   -24.8696     0.0000     0.0000 </r>
       <r>   -24.7626     0.0000     0.0000 </r>
       <r>   -24.6556     0.0000     0.0000 </r>
       <r>   -24.5486     0.0000     0.0000 </r>
       <r>   -24.4416     0.0000     0.0000 </r>
       <r>   -24.3346     0.0000     0.0000 </r>
       <r>   -24.2276     0.0000     0.0000 </r>
       <r>   -24.1206     0.0002     0.0000 </r>
       <r>   -24.0136     0.0035     0.0004 </r>
       <r>   -23.9066     0.0295     0.0036 </r>
       <r>   -23.7996     0.0588     0.0098 </r>
       <r>   -23.6926    -0.3241    -0.0248 </r>
       <r>   -23.5856    -0.7290    -0.1028 </r>
       <r>   -23.4786     3.1714     0.2365 </r>
       <r>   -23.3716     9.5700     1.2605 </r>
       <r>   -23.2646     7.0764     2.0177 </r>
       <r>   -23.1576     0.5485     2.0764 </r>
       <r>   -23.0506    -0.7325     1.9981 </r>
       <r>   -22.9436    -0.0522     1.9925 </r>
       <r>   -22.8366     0.0569     1.9986 </r>
       <r>   -22.7296     0.0123     1.9999 </r>
       <r>   -22.6226     0.0010     2.0000 </r>
       <r>   -22.5156     0.0000     2.0000 </r>
       <r>   -22.4085     0.0000     2.0000 </r>
       <r>   -22.3015     0.0000     2.0000 </r>
       <r>   -22.1945     0.0000     2.0000 </r>
       <r>   -22.0875     0.0000     2.0000 </r>
       <r>   -21.9805     0.0000     2.0000 </r>
       <r>   -21.8735     0.0000     2.0000 </r>
       <r>   -21.7665     0.0000     2.0000 </r>
       <r>   -21.6595     0.0000     2.0000 </r>
       <r>   -21.5525     0.0000     2.0000 </r>
       <r>   -21.4455     0.0000     2.0000 </r>
       <r>   -21.3385     0.0000     2.0000 </r>
       <r>   -21.2315     0.0000     2.0000 </r>
       <r>   -21.1245     0.0000     2.0000 </r>
       <r>   -21.0175     0.0000     2.0000 </r>
       <r>   -20.9105     0.0000     2.0000 </r>
       <r>   -20.8035     0.0000     2.0000 </r>
       <r>   -20.6965     0.0000     2.0000 </r>
       <r>   -20.5895     0.0000     2.0000 </r>
       <r>   -20.4825     0.0000     2.0000 </r>
       <r>   -20.3755     0.0000     2.0000 </r>
       <r>   -20.2685     0.0000     2.0000 </r>
       <r>   -20.1615     0.0000     2.0000 </r>
       <r>   -20.0545     0.0000     2.0000 </r>
       <r>   -19.9475     0.0000     2.0000 </r>
       <r>   -19.8405     0.0000     2.0000 </r>
       <r>   -19.7334     0.0000     2.0000 </r>
       <r>   -19.6264     0.0000     2.0000 </r>
       <r>   -19.5194     0.0000     2.0000 </r>
       <r>   -19.4124     0.0000     2.0000 </r>
       <r>   -19.3054     0.0000     2.0000 </r>
       <r>   -19.1984     0.0000     2.0000 </r>
       <r>   -19.0914     0.0000     2.0000 </r>
       <r>   -18.9844     0.0000     2.0000 </r>
       <r>   -18.8774     0.0000     2.0000 </r>
       <r>   -18.7704     0.0000     2.0000 </r>
       <r>   -18.6634     0.0000     2.0000 </r>
       <r>   -18.5564     0.0000     2.0000 </r>
       <r>   -18.4494     0.0000     2.0000 </r>
       <r>   -18.3424     0.0000     2.0000 </r>
       <r>   -18.2354     0.0000     2.0000 </r>
       <r>   -18.1284     0.0000     2.0000 </r>
       <r>   -18.0214     0.0000     2.0000 </r>
       <r>   -17.9144     0.0002     2.0000 </r>
       <r>   -17.8074     0.0039     2.0004 </r>
       <r>   -17.7004     0.0305     2.0037 </r>
       <r>   -17.5934     0.0521     2.0093 </r>
       <r>   -17.4864    -0.3397     1.9729 </r>
       <r>   -17.3794    -0.6488     1.9035 </r>
       <r>   -17.2724     3.3034     2.2570 </r>
       <r>   -17.1654     9.4411     3.2672 </r>
       <r>   -17.0583     6.9393     4.0097 </r>
       <r>   -16.9513     0.6035     4.0743 </r>
       <r>   -16.8443    -0.7040     3.9990 </r>
       <r>   -16.7373    -0.0596     3.9926 </r>
       <r>   -16.6303     0.0552     3.9985 </r>
       <r>   -16.5233     0.0127     3.9999 </r>
       <r>   -16.4163     0.0011     4.0000 </r>
       <r>   -16.3093     0.0000     4.0000 </r>
       <r>   -16.2023     0.0000     4.0000 </r>
       <r>   -16.0953     0.0000     4.0000 </r>
       <r>   -15.9883     0.0000     4.0000 </r>
       <r>   -15.8813     0.0000     4.0000 </r>
       <r>   -15.7743     0.0000     4.0000 </r>
       <r>   -15.6673     0.0000     4.0000 </r>
       <r>   -15.5603     0.0000     4.0000 </r>
       <r>   -15.4533     0.0000     4.0000 </r>
       <r>   -15.3463     0.0000     4.0000 </r>
       <r>   -15.2393     0.0000     4.0000 </r>
       <r>   -15.1323     0.0000     4.0000 </r>
       <r>   -15.0253     0.0000     4.0000 </r>
       <r>   -14.9183     0.0000     4.0000 </r>
       <r>   -14.8113     0.0000     4.0000 </r>
       <r>   -14.7043     0.0000     4.0000 </r>
       <r>   -14.5973     0.0000     4.0000 </r>
       <r>   -14.4903     0.0000     4.0000 </r>
       <r>   -14.3832     0.0000     4.0000 </r>
       <r>   -14.2762     0.0000     4.0000 </r>
       <r>   -14.1692     0.0000     4.0000 </r>
       <r>   -14.0622     0.0000     4.0000 </r>
       <r>   -13.9552     0.0000     4.0000 </r>
       <r>   -13.8482     0.0000     4.0000 </r>
       <r>   -13.7412     0.0000     4.0000 </r>
       <r>   -13.6342     0.0000     4.0000 </r>
       <r>   -13.5272     0.0000     4.0000 </r>
       <r>   -13.4202     0.0000     4.0000 </r>
       <r>   -13.3132     0.0000     4.0000 </r>
       <r>   -13.2062     0.0000     4.0000 </r>
       <r>   -13.0992     0.0000     4.0000 </r>
       <r>   -12.9922     0.0000     4.0000 </r>
       <r>   -12.8852     0.0000     4.0000 </r>
       <r>   -12.7782     0.0000     4.0000 </r>
       <r>   -12.6712     0.0000     4.0000 </r>
       <r>   -12.5642     0.0000     4.0000 </r>
       <r>   -12.4572     0.0000     4.0000 </r>
       <r>   -12.3502     0.0000     4.0000 </r>
       <r>   -12.2432     0.0000     4.0000 </r>
       <r>   -12.1362     0.0000     4.0000 </r>
       <r>   -12.0292     0.0000     4.0000 </r>
       <r>   -11.9222     0.0000     4.0000 </r>
       <r>   -11.8152     0.0000     4.0000 </r>
       <r>   -11.7081     0.0000     4.0000 </r>
       <r>   -11.6011     0.0000     4.0000 </r>
       <r>   -11.4941     0.0000     4.0000 </r>
       <r>   -11.3871     0.0000     4.0000 </r>
       <r>   -11.2801     0.0000     4.0000 </r>
       <r>   -11.1731     0.0000     4.0000 </r>
       <r>   -11.0661     0.0000     4.0000 </r>
       <r>   -10.9591     0.0000     4.0000 </r>
       <r>   -10.8521     0.0000     4.0000 </r>
       <r>   -10.7451     0.0000     4.0000 </r>
       <r>   -10.6381     0.0000     4.0000 </r>
       <r>   -10.5311     0.0000     4.0000 </r>
       <r>   -10.4241     0.0000     4.0000 </r>
       <r>   -10.3171     0.0000     4.0000 </r>
       <r>   -10.2101     0.0000     4.0000 </r>
       <r>   -10.1031     0.0000     4.0000 </r>
       <r>    -9.9961     0.0000     4.0000 </r>
       <r>    -9.8891     0.0002     4.0000 </r>
       <r>    -9.7821     0.0016     4.0002 </r>
       <r>    -9.6751     0.0029     4.0005 </r>
       <r>    -9.5681    -0.0142     3.9990 </r>
       <r>    -9.4611    -0.0277     3.9960 </r>
       <r>    -9.3541     0.1499     4.0121 </r>
       <r>    -9.2471     0.4904     4.0645 </r>
       <r>    -9.1401     0.5684     4.1254 </r>
       <r>    -9.0331     0.3178     4.1594 </r>
       <r>    -8.9260     1.2795     4.2963 </r>
       <r>    -8.8190     5.9550     4.9335 </r>
       <r>    -8.7120     9.2542     5.9237 </r>
       <r>    -8.6050     5.3396     6.4951 </r>
       <r>    -8.4980     1.1039     6.6132 </r>
       <r>    -8.3910     0.5539     6.6725 </r>
       <r>    -8.2840     0.8169     6.7599 </r>
       <r>    -8.1770     1.1263     6.8804 </r>
       <r>    -8.0700     1.3967     7.0299 </r>
       <r>    -7.9630     1.7363     7.2156 </r>
       <r>    -7.8560     2.0485     7.4348 </r>
       <r>    -7.7490     1.9180     7.6401 </r>
       <r>    -7.6420     1.9843     7.8524 </r>
       <r>    -7.5350     2.6661     8.1377 </r>
       <r>    -7.4280     4.1845     8.5855 </r>
       <r>    -7.3210     5.4040     9.1637 </r>
       <r>    -7.2140     4.4679     9.6418 </r>
       <r>    -7.1070     3.6090    10.0280 </r>
       <r>    -7.0000     4.2280    10.4804 </r>
       <r>    -6.8930     4.8593    11.0003 </r>
       <r>    -6.7860     5.9653    11.6386 </r>
       <r>    -6.6790     7.1660    12.4054 </r>
       <r>    -6.5720     6.8697    13.1405 </r>
       <r>    -6.4650     7.2961    13.9212 </r>
       <r>    -6.3580     9.2653    14.9126 </r>
       <r>    -6.2509    12.5326    16.2537 </r>
       <r>    -6.1439    15.0017    17.8589 </r>
       <r>    -6.0369    14.1803    19.3763 </r>
       <r>    -5.9299    14.9616    20.9772 </r>
       <r>    -5.8229    18.0838    22.9123 </r>
       <r>    -5.7159    17.9254    24.8303 </r>
       <r>    -5.6089    14.6125    26.3939 </r>
       <r>    -5.5019    12.9835    27.7832 </r>
       <r>    -5.3949    13.6084    29.2394 </r>
       <r>    -5.2879    13.1376    30.6452 </r>
       <r>    -5.1809    11.5786    31.8841 </r>
       <r>    -5.0739    12.5786    33.2301 </r>
       <r>    -4.9669    14.5839    34.7906 </r>
       <r>    -4.8599    13.9674    36.2852 </r>
       <r>    -4.7529    11.6716    37.5341 </r>
       <r>    -4.6459    11.0652    38.7181 </r>
       <r>    -4.5389    15.2313    40.3479 </r>
       <r>    -4.4319    19.9910    42.4870 </r>
       <r>    -4.3249    18.7001    44.4880 </r>
       <r>    -4.2179    17.1951    46.3280 </r>
       <r>    -4.1109    19.3266    48.3960 </r>
       <r>    -4.0039    19.3350    50.4649 </r>
       <r>    -3.8969    18.6621    52.4618 </r>
       <r>    -3.7899    21.0451    54.7137 </r>
       <r>    -3.6829    23.7858    57.2589 </r>
       <r>    -3.5758    25.3318    59.9695 </r>
       <r>    -3.4688    26.9652    62.8549 </r>
       <r>    -3.3618    27.1734    65.7626 </r>
       <r>    -3.2548    23.9481    68.3251 </r>
       <r>    -3.1478    21.0603    70.5786 </r>
       <r>    -3.0408    21.2167    72.8489 </r>
       <r>    -2.9338    21.7340    75.1745 </r>
       <r>    -2.8268    22.9000    77.6249 </r>
       <r>    -2.7198    23.7746    80.1689 </r>
       <r>    -2.6128    21.9355    82.5161 </r>
       <r>    -2.5058    18.8219    84.5301 </r>
       <r>    -2.3988    16.0067    86.2429 </r>
       <r>    -2.2918    14.3388    87.7772 </r>
       <r>    -2.1848    15.0243    89.3848 </r>
       <r>    -2.0778    19.8006    91.5036 </r>
       <r>    -1.9708    27.7837    94.4766 </r>
       <r>    -1.8638    30.1125    97.6987 </r>
       <r>    -1.7568    24.6285   100.3341 </r>
       <r>    -1.6498    23.7345   102.8737 </r>
       <r>    -1.5428    26.4985   105.7092 </r>
       <r>    -1.4358    24.4227   108.3225 </r>
       <r>    -1.3288    23.1097   110.7954 </r>
       <r>    -1.2218    26.3091   113.6105 </r>
       <r>    -1.1148    26.6437   116.4615 </r>
       <r>    -1.0078    25.3592   119.1750 </r>
       <r>    -0.9007    27.7550   122.1449 </r>
       <r>    -0.7937    30.8612   125.4472 </r>
       <r>    -0.6867    29.7108   128.6264 </r>
       <r>    -0.5797    25.4171   131.3461 </r>
       <r>    -0.4727    25.4044   134.0645 </r>
       <r>    -0.3657    26.1568   136.8634 </r>
       <r>    -0.2587    18.8504   138.8805 </r>
       <r>    -0.1517     9.6300   139.9109 </r>
       <r>    -0.0447     6.7432   140.6324 </r>
       <r>     0.0623     6.5313   141.3313 </r>
       <r>     0.1693     4.9503   141.8610 </r>
       <r>     0.2763     4.6214   142.3555 </r>
       <r>     0.3833     5.2721   142.9197 </r>
       <r>     0.4903     4.5070   143.4019 </r>
       <r>     0.5973     3.1771   143.7419 </r>
       <r>     0.7043     3.4970   144.1161 </r>
       <r>     0.8113     4.8384   144.6338 </r>
       <r>     0.9183     4.1401   145.0768 </r>
       <r>     1.0253     2.7074   145.3665 </r>
       <r>     1.1323     3.4445   145.7351 </r>
       <r>     1.2393     4.3070   146.1960 </r>
       <r>     1.3463     4.2504   146.6508 </r>
       <r>     1.4533     4.1401   147.0938 </r>
       <r>     1.5603     3.4967   147.4680 </r>
       <r>     1.6673     3.5418   147.8469 </r>
       <r>     1.7744     3.8490   148.2588 </r>
       <r>     1.8814     3.5744   148.6413 </r>
       <r>     1.9884     3.4733   149.0129 </r>
       <r>     2.0954     3.2236   149.3579 </r>
       <r>     2.2024     3.5940   149.7425 </r>
       <r>     2.3094     4.4792   150.2217 </r>
       <r>     2.4164     4.7145   150.7262 </r>
       <r>     2.5234     4.7675   151.2363 </r>
       <r>     2.6304     4.7047   151.7398 </r>
       <r>     2.7374     3.9713   152.1647 </r>
       <r>     2.8444     3.1977   152.5069 </r>
       <r>     2.9514     4.0420   152.9394 </r>
       <r>     3.0584     5.8746   153.5680 </r>
       <r>     3.1654     6.5075   154.2643 </r>
       <r>     3.2724     6.4070   154.9499 </r>
       <r>     3.3794     5.0992   155.4955 </r>
       <r>     3.4864     2.5298   155.7662 </r>
       <r>     3.5934     2.0420   155.9847 </r>
       <r>     3.7004     3.9425   156.4066 </r>
       <r>     3.8074     5.8339   157.0309 </r>
       <r>     3.9144     6.1594   157.6899 </r>
       <r>     4.0214     4.3541   158.1558 </r>
       <r>     4.1284     2.5045   158.4238 </r>
       <r>     4.2354     3.1836   158.7645 </r>
       <r>     4.3424     4.6402   159.2610 </r>
       <r>     4.4495     3.8805   159.6762 </r>
       <r>     4.5565     1.8423   159.8734 </r>
       <r>     4.6635     0.6865   159.9468 </r>
       <r>     4.7705     0.4081   159.9905 </r>
       <r>     4.8775     0.1243   160.0038 </r>
       <r>     4.9845    -0.0315   160.0004 </r>
       <r>     5.0915    -0.0100   159.9994 </r>
       <r>     5.1985     0.0043   159.9998 </r>
       <r>     5.3055     0.0015   160.0000 </r>
       <r>     5.4125     0.0002   160.0000 </r>
       <r>     5.5195     0.0000   160.0000 </r>
       <r>     5.6265     0.0000   160.0000 </r>
       <r>     5.7335     0.0000   160.0000 </r>
       <r>     5.8405     0.0000   160.0000 </r>
       <r>     5.9475     0.0000   160.0000 </r>
       <r>     6.0545     0.0000   160.0000 </r>
       <r>     6.1615     0.0000   160.0000 </r>
       <r>     6.2685     0.0000   160.0000 </r>
       <r>     6.3755     0.0000   160.0000 </r>
       <r>     6.4825     0.0000   160.0000 </r>
       <r>     6.5895     0.0000   160.0000 </r>
       <r>     6.6965     0.0000   160.0000 </r>
      </set>
     </set>
    </array>
   </total>
  </dos>
 </calculation>
 <structure name="finalpos" >
  <crystal>
   <varray name="basis" >
    <v>       4.88428255       0.00000000       0.00000000 </v>
    <v>       2.44214127       4.22991277       0.00000000 </v>
    <v>       0.00000000       0.00000000      22.10741862 </v>
   </varray>
   <i name="volume">    456.74123834 </i>
   <varray name="rec_basis" >
    <v>       0.20473836      -0.11820575       0.00000000 </v>
    <v>      -0.00000000       0.23641149       0.00000000 </v>
    <v>       0.00000000       0.00000000       0.04523368 </v>
   </varray>
  </crystal>
  <varray name="positions" >
   <v>       0.30286415       0.49410690       0.00209390 </v>
   <v>       0.63619748       0.82744023       0.00209390 </v>
   <v>       0.96953081       0.16077357       0.00209390 </v>
   <v>       0.63619748       0.49410690       0.10624323 </v>
   <v>       0.96953081       0.82744023       0.10624323 </v>
   <v>       0.30286415       0.16077357       0.10624323 </v>
   <v>       0.31067466       0.49341401       0.28152393 </v>
   <v>       0.64831023       0.82450431       0.29135780 </v>
   <v>       0.97527647       0.15782881       0.28801827 </v>
   <v>       0.95623816       0.49516373       0.19649301 </v>
   <v>       0.31679861       0.83987020       0.19641288 </v>
   <v>       0.64645240       0.14628394       0.19482163 </v>
   <v>       0.85492754       0.04357536       0.39419380 </v>
   <v>       0.68795950       0.86973606       0.38273858 </v>
   <v>       0.06585313       0.87160986       0.40618395 </v>
  </varray>
  <varray name="selective"  type="logical" >
   <v type="logical" >  F  F  F </v>
   <v type="logical" >  F  F  F </v>
   <v type="logical" >  F  F  F </v>
   <v type="logical" >  F  F  F </v>
   <v type="logical" >  F  F  F </v>
   <v type="logical" >  F  F  F </v>
   <v type="logical" >  T  T  T </v>
   <v type="logical" >  T  T  T </v>
   <v type="logical" >  T  T  T </v>
   <v type="logical" >  T  T  T </v>
   <v type="logical" >  T  T  T </v>
   <v type="logical" >  T  T  T </v>
   <v type="logical" >  T  T  T </v>
   <v type="logical" >  T  T  T </v>
   <v type="logical" >  T  T  T </v>
  </varray>
  <nose>
   <v>      -3.00000000       0.00000000       0.00010000       0.00010000 </v>
  </nose>
 </structure>
</modeling>
