<?xml version="1.0" encoding="ISO-8859-1"?>
<modeling>
 <generator>
  <i name="program" type="string">vasp </i>
  <i name="version" type="string">5.4.4.18Apr17-6-g9f103f2a35  </i>
  <i name="subversion" type="string">(build Apr 23 2019 15:17:44) complex            parallel </i>
  <i name="platform" type="string">MareNostrum4 </i>
  <i name="date" type="string">2019 05 10 </i>
  <i name="time" type="string">04:00:13 </i>
 </generator>
 <incar>
  <i type="int" name="ISTART">     0</i>
  <i type="string" name="PREC">normal</i>
  <i type="string" name="ALGO"> NORMAL</i>
  <i type="int" name="ICHARG">     2</i>
  <i type="int" name="INIWAV">     1</i>
  <i type="int" name="NELMIN">     8</i>
  <i type="int" name="IBRION">     2</i>
  <i name="EDIFF">      0.00000100</i>
  <i name="EDIFFG">     -0.01000000</i>
  <i type="int" name="NSW">  1500</i>
  <i name="ENCUT">    450.00000000</i>
  <i name="POTIM">      0.20000000</i>
  <i type="int" name="ISMEAR">     2</i>
  <i name="SIGMA">      0.20000000</i>
  <i type="logical" name="LWAVE"> F  </i>
  <i type="logical" name="LCHARG"> T  </i>
  <v type="int" name="KPOINT_BSE">    -1     0     0     0</v>
  <i type="string" name="GGA"> 91</i>
  <i type="logical" name="LDIPOL"> T  </i>
  <i type="int" name="IDIPOL">     3</i>
 </incar>
 <structure name="primitive_cell" >
  <crystal>
   <varray name="basis" >
    <v>       4.88428255       0.00000000       0.00000000 </v>
    <v>       2.44214127       4.22991277       0.00000000 </v>
    <v>       0.00000000       0.00000000      22.10741862 </v>
   </varray>
   <i name="volume">    456.74123834 </i>
   <varray name="rec_basis" >
    <v>       0.20473836      -0.11820575       0.00000000 </v>
    <v>      -0.00000000       0.23641149       0.00000000 </v>
    <v>       0.00000000       0.00000000       0.04523368 </v>
   </varray>
  </crystal>
  <varray name="positions" >
   <v>       0.30286415       0.49410690       0.00209390 </v>
   <v>      -0.36380252       0.49410690       0.10624323 </v>
   <v>      -0.03046919      -0.17255977       0.10624323 </v>
   <v>      -0.36380252      -0.17255977       0.00209390 </v>
   <v>      -0.03046919       0.16077357       0.00209390 </v>
   <v>       0.30286415       0.16077357       0.10624323 </v>
   <v>      -0.03046919       0.49410690       0.20490853 </v>
   <v>       0.30286415      -0.17255977       0.20490853 </v>
   <v>      -0.36380252       0.16077357       0.20490853 </v>
   <v>       0.30286415       0.49410690       0.30606275 </v>
   <v>      -0.36380252      -0.17255977       0.30606275 </v>
   <v>      -0.03046919       0.16077357       0.30606275 </v>
   <v>      -0.36147278      -0.18720688       0.40965579 </v>
   <v>      -0.00774698      -0.16987484       0.44138925 </v>
   <v>      -0.23128870      -0.00740884       0.43532491 </v>
  </varray>
 </structure>
 <varray name="primitive_index" >
  <v type="int" >        1 </v>
  <v type="int" >        4 </v>
  <v type="int" >        5 </v>
  <v type="int" >        2 </v>
  <v type="int" >        3 </v>
  <v type="int" >        6 </v>
  <v type="int" >       10 </v>
  <v type="int" >       11 </v>
  <v type="int" >       12 </v>
  <v type="int" >        7 </v>
  <v type="int" >        8 </v>
  <v type="int" >        9 </v>
  <v type="int" >       14 </v>
  <v type="int" >       15 </v>
  <v type="int" >       13 </v>
 </varray>
 <kpoints>
  <generation param="Monkhorst-Pack">
   <v type="int" name="divisions">       8        8        1 </v>
   <v name="usershift">      0.00000000       0.00000000       0.00000000 </v>
   <v name="genvec1">      0.12500000      -0.00000000       0.00000000 </v>
   <v name="genvec2">      0.00000000       0.12500000       0.00000000 </v>
   <v name="genvec3">      0.00000000       0.00000000       1.00000000 </v>
   <v name="shift">      0.50000000       0.50000000       0.00000000 </v>
  </generation>
  <varray name="kpointlist" >
   <v>       0.06250000       0.06250000       0.00000000 </v>
   <v>       0.00000000       0.06250000       0.00000000 </v>
   <v>      -0.06250000       0.00000000       0.00000000 </v>
   <v>       0.18750000       0.06250000       0.00000000 </v>
   <v>       0.12500000       0.18750000       0.00000000 </v>
   <v>      -0.06250000       0.12500000       0.00000000 </v>
   <v>       0.12500000      -0.06250000       0.00000000 </v>
   <v>      -0.06250000      -0.18750000       0.00000000 </v>
   <v>      -0.18750000      -0.12500000       0.00000000 </v>
   <v>       0.31250000       0.06250000       0.00000000 </v>
   <v>       0.25000000       0.31250000       0.00000000 </v>
   <v>      -0.06250000       0.25000000       0.00000000 </v>
   <v>       0.25000000      -0.06250000       0.00000000 </v>
   <v>      -0.06250000      -0.31250000       0.00000000 </v>
   <v>      -0.31250000      -0.25000000       0.00000000 </v>
   <v>       0.43750000       0.06250000       0.00000000 </v>
   <v>       0.37500000       0.43750000       0.00000000 </v>
   <v>      -0.06250000       0.37500000       0.00000000 </v>
   <v>       0.37500000      -0.06250000       0.00000000 </v>
   <v>      -0.06250000      -0.43750000       0.00000000 </v>
   <v>      -0.43750000      -0.37500000       0.00000000 </v>
   <v>      -0.43750000       0.06250000       0.00000000 </v>
   <v>       0.50000000      -0.43750000       0.00000000 </v>
   <v>      -0.06250000       0.50000000       0.00000000 </v>
   <v>       0.50000000      -0.06250000       0.00000000 </v>
   <v>      -0.06250000       0.43750000       0.00000000 </v>
   <v>       0.43750000       0.50000000       0.00000000 </v>
   <v>      -0.31250000       0.06250000       0.00000000 </v>
   <v>      -0.37500000      -0.31250000       0.00000000 </v>
   <v>      -0.06250000      -0.37500000       0.00000000 </v>
   <v>      -0.37500000      -0.06250000       0.00000000 </v>
   <v>      -0.06250000       0.31250000       0.00000000 </v>
   <v>       0.31250000       0.37500000       0.00000000 </v>
   <v>      -0.18750000       0.06250000       0.00000000 </v>
   <v>      -0.25000000      -0.18750000       0.00000000 </v>
   <v>      -0.06250000      -0.25000000       0.00000000 </v>
   <v>      -0.25000000      -0.06250000       0.00000000 </v>
   <v>      -0.06250000       0.18750000       0.00000000 </v>
   <v>       0.18750000       0.25000000       0.00000000 </v>
   <v>      -0.06250000       0.06250000       0.00000000 </v>
   <v>      -0.12500000      -0.06250000       0.00000000 </v>
   <v>      -0.06250000      -0.12500000       0.00000000 </v>
   <v>       0.18750000       0.18750000       0.00000000 </v>
   <v>      -0.00000000       0.18750000       0.00000000 </v>
   <v>      -0.18750000       0.00000000       0.00000000 </v>
   <v>       0.31250000       0.18750000       0.00000000 </v>
   <v>       0.12500000       0.31250000       0.00000000 </v>
   <v>      -0.18750000       0.12500000       0.00000000 </v>
   <v>       0.12500000      -0.18750000       0.00000000 </v>
   <v>      -0.18750000      -0.31250000       0.00000000 </v>
   <v>      -0.31250000      -0.12500000       0.00000000 </v>
   <v>       0.43750000       0.18750000       0.00000000 </v>
   <v>       0.25000000       0.43750000       0.00000000 </v>
   <v>      -0.18750000       0.25000000       0.00000000 </v>
   <v>       0.25000000      -0.18750000       0.00000000 </v>
   <v>      -0.18750000      -0.43750000       0.00000000 </v>
   <v>      -0.43750000      -0.25000000       0.00000000 </v>
   <v>      -0.43750000       0.18750000       0.00000000 </v>
   <v>       0.37500000      -0.43750000       0.00000000 </v>
   <v>      -0.18750000       0.37500000       0.00000000 </v>
   <v>       0.37500000      -0.18750000       0.00000000 </v>
   <v>      -0.18750000       0.43750000       0.00000000 </v>
   <v>       0.43750000      -0.37500000       0.00000000 </v>
   <v>      -0.31250000       0.18750000       0.00000000 </v>
   <v>       0.50000000      -0.31250000       0.00000000 </v>
   <v>      -0.18750000       0.50000000       0.00000000 </v>
   <v>       0.50000000      -0.18750000       0.00000000 </v>
   <v>      -0.18750000       0.31250000       0.00000000 </v>
   <v>       0.31250000       0.50000000       0.00000000 </v>
   <v>      -0.18750000       0.18750000       0.00000000 </v>
   <v>      -0.37500000      -0.18750000       0.00000000 </v>
   <v>      -0.18750000      -0.37500000       0.00000000 </v>
   <v>       0.31250000       0.31250000       0.00000000 </v>
   <v>      -0.00000000       0.31250000       0.00000000 </v>
   <v>      -0.31250000       0.00000000       0.00000000 </v>
   <v>       0.43750000       0.31250000       0.00000000 </v>
   <v>       0.12500000       0.43750000       0.00000000 </v>
   <v>      -0.31250000       0.12500000       0.00000000 </v>
   <v>       0.12500000      -0.31250000       0.00000000 </v>
   <v>      -0.31250000      -0.43750000       0.00000000 </v>
   <v>      -0.43750000      -0.12500000       0.00000000 </v>
   <v>      -0.43750000       0.31250000       0.00000000 </v>
   <v>       0.25000000      -0.43750000       0.00000000 </v>
   <v>      -0.31250000       0.25000000       0.00000000 </v>
   <v>       0.25000000      -0.31250000       0.00000000 </v>
   <v>      -0.31250000       0.43750000       0.00000000 </v>
   <v>       0.43750000      -0.25000000       0.00000000 </v>
   <v>      -0.31250000       0.31250000       0.00000000 </v>
   <v>       0.37500000      -0.31250000       0.00000000 </v>
   <v>      -0.31250000       0.37500000       0.00000000 </v>
   <v>       0.43750000       0.43750000       0.00000000 </v>
   <v>       0.00000000       0.43750000       0.00000000 </v>
   <v>      -0.43750000       0.00000000       0.00000000 </v>
   <v>      -0.43750000       0.43750000       0.00000000 </v>
   <v>       0.12500000      -0.43750000       0.00000000 </v>
   <v>      -0.43750000       0.12500000       0.00000000 </v>
  </varray>
  <varray name="weights" >
   <v>       0.01041667 </v>
   <v>       0.01041667 </v>
   <v>       0.01041667 </v>
   <v>       0.01041667 </v>
   <v>       0.01041667 </v>
   <v>       0.01041667 </v>
   <v>       0.01041667 </v>
   <v>       0.01041667 </v>
   <v>       0.01041667 </v>
   <v>       0.01041667 </v>
   <v>       0.01041667 </v>
   <v>       0.01041667 </v>
   <v>       0.01041667 </v>
   <v>       0.01041667 </v>
   <v>       0.01041667 </v>
   <v>       0.01041667 </v>
   <v>       0.01041667 </v>
   <v>       0.01041667 </v>
   <v>       0.01041667 </v>
   <v>       0.01041667 </v>
   <v>       0.01041667 </v>
   <v>       0.01041667 </v>
   <v>       0.01041667 </v>
   <v>       0.01041667 </v>
   <v>       0.01041667 </v>
   <v>       0.01041667 </v>
   <v>       0.01041667 </v>
   <v>       0.01041667 </v>
   <v>       0.01041667 </v>
   <v>       0.01041667 </v>
   <v>       0.01041667 </v>
   <v>       0.01041667 </v>
   <v>       0.01041667 </v>
   <v>       0.01041667 </v>
   <v>       0.01041667 </v>
   <v>       0.01041667 </v>
   <v>       0.01041667 </v>
   <v>       0.01041667 </v>
   <v>       0.01041667 </v>
   <v>       0.01041667 </v>
   <v>       0.01041667 </v>
   <v>       0.01041667 </v>
   <v>       0.01041667 </v>
   <v>       0.01041667 </v>
   <v>       0.01041667 </v>
   <v>       0.01041667 </v>
   <v>       0.01041667 </v>
   <v>       0.01041667 </v>
   <v>       0.01041667 </v>
   <v>       0.01041667 </v>
   <v>       0.01041667 </v>
   <v>       0.01041667 </v>
   <v>       0.01041667 </v>
   <v>       0.01041667 </v>
   <v>       0.01041667 </v>
   <v>       0.01041667 </v>
   <v>       0.01041667 </v>
   <v>       0.01041667 </v>
   <v>       0.01041667 </v>
   <v>       0.01041667 </v>
   <v>       0.01041667 </v>
   <v>       0.01041667 </v>
   <v>       0.01041667 </v>
   <v>       0.01041667 </v>
   <v>       0.01041667 </v>
   <v>       0.01041667 </v>
   <v>       0.01041667 </v>
   <v>       0.01041667 </v>
   <v>       0.01041667 </v>
   <v>       0.01041667 </v>
   <v>       0.01041667 </v>
   <v>       0.01041667 </v>
   <v>       0.01041667 </v>
   <v>       0.01041667 </v>
   <v>       0.01041667 </v>
   <v>       0.01041667 </v>
   <v>       0.01041667 </v>
   <v>       0.01041667 </v>
   <v>       0.01041667 </v>
   <v>       0.01041667 </v>
   <v>       0.01041667 </v>
   <v>       0.01041667 </v>
   <v>       0.01041667 </v>
   <v>       0.01041667 </v>
   <v>       0.01041667 </v>
   <v>       0.01041667 </v>
   <v>       0.01041667 </v>
   <v>       0.01041667 </v>
   <v>       0.01041667 </v>
   <v>       0.01041667 </v>
   <v>       0.01041667 </v>
   <v>       0.01041667 </v>
   <v>       0.01041667 </v>
   <v>       0.01041667 </v>
   <v>       0.01041667 </v>
   <v>       0.01041667 </v>
  </varray>
 </kpoints>
 <parameters>
  <separator name="general" >
   <i type="string" name="SYSTEM">unknown system</i>
   <i type="logical" name="LCOMPAT"> F  </i>
  </separator>
  <separator name="electronic" >
   <i type="string" name="PREC">normal</i>
   <i name="ENMAX">    450.00000000</i>
   <i name="ENAUG">    605.39200000</i>
   <i name="EDIFF">      0.00000100</i>
   <i type="int" name="IALGO">    38</i>
   <i type="int" name="IWAVPR">    11</i>
   <i type="int" name="NBANDS">    78</i>
   <i name="NELECT">    130.00000000</i>
   <i type="int" name="TURBO">     0</i>
   <i type="int" name="IRESTART">     0</i>
   <i type="int" name="NREBOOT">     0</i>
   <i type="int" name="NMIN">     0</i>
   <i name="EREF">      0.00000000</i>
   <separator name="electronic smearing" >
    <i type="int" name="ISMEAR">     2</i>
    <i name="SIGMA">      0.20000000</i>
    <i name="KSPACING">      0.50000000</i>
    <i type="logical" name="KGAMMA"> T  </i>
   </separator>
   <separator name="electronic projectors" >
    <i type="logical" name="LREAL"> F  </i>
    <v name="ROPT">      0.00000000      0.00000000      0.00000000      0.00000000</v>
    <i type="int" name="LMAXPAW">  -100</i>
    <i type="int" name="LMAXMIX">     2</i>
    <i type="logical" name="NLSPLINE"> F  </i>
   </separator>
   <separator name="electronic startup" >
    <i type="int" name="ISTART">     0</i>
    <i type="int" name="ICHARG">     2</i>
    <i type="int" name="INIWAV">     1</i>
   </separator>
   <separator name="electronic spin" >
    <i type="int" name="ISPIN">     1</i>
    <i type="logical" name="LNONCOLLINEAR"> F  </i>
    <v name="MAGMOM">      1.00000000      1.00000000      1.00000000      1.00000000      1.00000000      1.00000000      1.00000000      1.00000000      1.00000000      1.00000000      1.00000000      1.00000000      1.00000000      1.00000000      1.00000000</v>
    <i name="NUPDOWN">     -1.00000000</i>
    <i type="logical" name="LSORBIT"> F  </i>
    <v name="SAXIS">      0.00000000      0.00000000      1.00000000</v>
    <i type="logical" name="LSPIRAL"> F  </i>
    <v name="QSPIRAL">      0.00000000      0.00000000      0.00000000</v>
    <i type="logical" name="LZEROZ"> F  </i>
   </separator>
   <separator name="electronic exchange-correlation" >
    <i type="logical" name="LASPH"> F  </i>
    <i type="logical" name="LMETAGGA"> F  </i>
   </separator>
   <separator name="electronic convergence" >
    <i type="int" name="NELM">    60</i>
    <i type="int" name="NELMDL">    -5</i>
    <i type="int" name="NELMIN">     8</i>
    <i name="ENINI">    450.00000000</i>
    <separator name="electronic convergence detail" >
     <i type="logical" name="LDIAG"> T  </i>
     <i type="logical" name="LSUBROT"> F  </i>
     <i name="WEIMIN">      0.00100000</i>
     <i name="EBREAK">      0.00000000</i>
     <i name="DEPER">      0.30000000</i>
     <i type="int" name="NRMM">     4</i>
     <i name="TIME">      0.40000000</i>
    </separator>
   </separator>
   <separator name="electronic mixer" >
    <i name="AMIX">      0.40000000</i>
    <i name="BMIX">      1.00000000</i>
    <i name="AMIN">      0.10000000</i>
    <i name="AMIX_MAG">      1.60000000</i>
    <i name="BMIX_MAG">      1.00000000</i>
    <separator name="electronic mixer details" >
     <i type="int" name="IMIX">     4</i>
     <i type="logical" name="MIXFIRST"> F  </i>
     <i type="int" name="MAXMIX">   -45</i>
     <i name="WC">    100.00000000</i>
     <i type="int" name="INIMIX">     1</i>
     <i type="int" name="MIXPRE">     1</i>
     <i type="int" name="MREMOVE">     5</i>
    </separator>
   </separator>
   <separator name="electronic dipolcorrection" >
    <i type="logical" name="LDIPOL"> T  </i>
    <i type="logical" name="LMONO"> F  </i>
    <i type="int" name="IDIPOL">     3</i>
    <i name="EPSILON">      1.00000000</i>
    <v name="DIPOL">   -100.00000000   -100.00000000   -100.00000000</v>
    <i name="EFIELD">      0.00000000</i>
   </separator>
  </separator>
  <separator name="grids" >
   <i type="int" name="NGX">    28</i>
   <i type="int" name="NGY">    28</i>
   <i type="int" name="NGZ">   120</i>
   <i type="int" name="NGXF">    56</i>
   <i type="int" name="NGYF">    56</i>
   <i type="int" name="NGZF">   240</i>
   <i type="logical" name="ADDGRID"> F  </i>
  </separator>
  <separator name="ionic" >
   <i type="int" name="NSW">  1500</i>
   <i type="int" name="IBRION">     2</i>
   <i type="int" name="MDALGO">     0</i>
   <i type="int" name="ISIF">     2</i>
   <i name="PSTRESS">      0.00000000</i>
   <i name="EDIFFG">     -0.01000000</i>
   <i type="int" name="NFREE">     1</i>
   <i name="POTIM">      0.20000000</i>
   <i name="SMASS">     -3.00000000</i>
   <i name="SCALEE">      1.00000000</i>
  </separator>
  <separator name="ionic md" >
   <i name="TEBEG">      0.00010000</i>
   <i name="TEEND">      0.00010000</i>
   <i type="int" name="NBLOCK">     1</i>
   <i type="int" name="KBLOCK">  1500</i>
   <i type="int" name="NPACO">   256</i>
   <i name="APACO">     16.00000000</i>
  </separator>
  <separator name="symmetry" >
   <i type="int" name="ISYM">     2</i>
   <i name="SYMPREC">      0.00001000</i>
  </separator>
  <separator name="dos" >
   <i type="int" name="LORBIT">     0</i>
   <v name="RWIGS">     -1.00000000     -1.00000000     -1.00000000     -1.00000000</v>
   <i type="int" name="NEDOS">   301</i>
   <i name="EMIN">     10.00000000</i>
   <i name="EMAX">    -10.00000000</i>
   <i name="EFERMI">      0.00000000</i>
  </separator>
  <separator name="writing" >
   <i type="int" name="NWRITE">     2</i>
   <i type="logical" name="LWAVE"> F  </i>
   <i type="logical" name="LDOWNSAMPLE"> F  </i>
   <i type="logical" name="LCHARG"> T  </i>
   <i type="logical" name="LPARD"> F  </i>
   <i type="logical" name="LVTOT"> F  </i>
   <i type="logical" name="LVHAR"> F  </i>
   <i type="logical" name="LELF"> F  </i>
   <i type="logical" name="LOPTICS"> F  </i>
   <v name="STM">      0.00000000      0.00000000      0.00000000      0.00000000      0.00000000      0.00000000      0.00000000</v>
  </separator>
  <separator name="performance" >
   <i type="int" name="NPAR">     2</i>
   <i type="int" name="NSIM">     4</i>
   <i type="int" name="NBLK">    -1</i>
   <i type="logical" name="LPLANE"> T  </i>
   <i type="logical" name="LSCALAPACK"> T  </i>
   <i type="logical" name="LSCAAWARE"> F  </i>
   <i type="logical" name="LSCALU"> F  </i>
   <i type="logical" name="LASYNC"> F  </i>
   <i type="logical" name="LORBITALREAL"> F  </i>
  </separator>
  <separator name="miscellaneous" >
   <i type="int" name="IDIOT">     3</i>
   <i type="int" name="ISPECIAL">     0</i>
   <i type="logical" name="LMUSIC"> F  </i>
   <v name="POMASS">    195.08000000    192.22000000     16.00000000      1.00000000</v>
   <v name="DARWINR">      0.00000000      0.00000000      0.00000000      0.00000000</v>
   <v name="DARWINV">      1.00000000      1.00000000      1.00000000      1.00000000</v>
   <i type="logical" name="LCORR"> T  </i>
  </separator>
  <i type="logical" name="GGA_COMPAT"> T  </i>
  <i type="logical" name="LBERRY"> F  </i>
  <i type="int" name="ICORELEVEL">     0</i>
  <i type="logical" name="LDAU"> F  </i>
  <i type="int" name="I_CONSTRAINED_M">     0</i>
  <separator name="electronic exchange-correlation" >
   <i type="string" name="GGA">91</i>
   <i type="int" name="VOSKOWN">     0</i>
   <i type="logical" name="LHFCALC"> F  </i>
   <i type="string" name="PRECFOCK"></i>
   <i type="logical" name="LSYMGRAD"> F  </i>
   <i type="logical" name="LHFONE"> F  </i>
   <i type="logical" name="LRHFCALC"> F  </i>
   <i type="logical" name="LTHOMAS"> F  </i>
   <i type="logical" name="LMODELHF"> F  </i>
   <i name="ENCUT4O">     -1.00000000</i>
   <i type="int" name="EXXOEP">     0</i>
   <i type="int" name="FOURORBIT">     0</i>
   <i name="AEXX">      0.00000000</i>
   <i name="HFALPHA">      0.00000000</i>
   <i name="MCALPHA">      0.00000000</i>
   <i name="ALDAX">      1.00000000</i>
   <i name="AGGAX">      1.00000000</i>
   <i name="ALDAC">      1.00000000</i>
   <i name="AGGAC">      1.00000000</i>
   <i type="int" name="NKREDX">     1</i>
   <i type="int" name="NKREDY">     1</i>
   <i type="int" name="NKREDZ">     1</i>
   <i type="logical" name="SHIFTRED"> F  </i>
   <i type="logical" name="ODDONLY"> F  </i>
   <i type="logical" name="EVENONLY"> F  </i>
   <i type="int" name="LMAXFOCK">     0</i>
   <i type="int" name="NMAXFOCKAE">     0</i>
   <i type="logical" name="LFOCKAEDFT"> F  </i>
   <i name="HFSCREEN">      0.00000000</i>
   <i name="HFSCREENC">      0.00000000</i>
   <i type="int" name="NBANDSGWLOW">     0</i>
  </separator>
  <separator name="vdW DFT" >
   <i type="logical" name="LUSE_VDW"> F  </i>
   <i name="Zab_VDW">     -0.84910000</i>
   <i name="PARAM1">      0.12340000</i>
   <i name="PARAM2">      1.00000000</i>
   <i name="PARAM3">      0.00000000</i>
  </separator>
  <separator name="model GW" >
   <i type="int" name="MODEL_GW">     0</i>
   <i name="MODEL_EPS0">     18.26964953</i>
   <i name="MODEL_ALPHA">      1.00000000</i>
  </separator>
  <separator name="linear response parameters" >
   <i type="logical" name="LEPSILON"> F  </i>
   <i type="logical" name="LRPA"> F  </i>
   <i type="logical" name="LNABLA"> F  </i>
   <i type="logical" name="LVEL"> F  </i>
   <i type="int" name="KINTER">     0</i>
   <i name="CSHIFT">      0.10000000</i>
   <i name="OMEGAMAX">     -1.00000000</i>
   <i name="DEG_THRESHOLD">      0.00200000</i>
   <i name="RTIME">     -0.10000000</i>
   <i name="WPLASMAI">      0.00000000</i>
   <v name="DFIELD">      0.00000000      0.00000000      0.00000000</v>
   <v name="WPLASMA">      0.00000000      0.00000000      0.00000000      0.00000000      0.00000000      0.00000000      0.00000000      0.00000000      0.00000000</v>
  </separator>
  <separator name="orbital magnetization" >
   <i type="logical" name="NUCIND"> F  </i>
   <v name="MAGPOS">      0.00000000      0.00000000      0.00000000</v>
   <i type="logical" name="LNICSALL"> T  </i>
   <i type="logical" name="ORBITALMAG"> F  </i>
   <i type="logical" name="LMAGBLOCH"> F  </i>
   <i type="logical" name="LCHIMAG"> F  </i>
   <i type="logical" name="LGAUGE"> T  </i>
   <i type="int" name="MAGATOM">     0</i>
   <v name="MAGDIPOL">      0.00000000      0.00000000      0.00000000</v>
   <v name="AVECCONST">      0.00000000      0.00000000      0.00000000</v>
  </separator>
  <separator name="response functions" >
   <i type="logical" name="LADDER"> F  </i>
   <i type="logical" name="LRPAFORCE"> F  </i>
   <i type="logical" name="LFXC"> F  </i>
   <i type="logical" name="LHARTREE"> T  </i>
   <i type="int" name="IBSE">     0</i>
   <v type="int" name="KPOINT">    -1     0     0     0</v>
   <i type="logical" name="LTCTE"> F  </i>
   <i type="logical" name="LTETE"> F  </i>
   <i type="logical" name="LTRIPLET"> F  </i>
   <i type="logical" name="LFXCEPS"> F  </i>
   <i type="logical" name="LFXHEG"> F  </i>
   <i type="int" name="NATURALO">     2</i>
   <i type="logical" name="L2ORDER"> F  </i>
   <i type="logical" name="LMP2LT"> F  </i>
   <i type="logical" name="LUSEW"> F  </i>
   <i name="ENCUTGW">     -2.00000000</i>
   <i name="ENCUTGWSOFT">     -2.00000000</i>
   <i name="ENCUTLF">     -1.00000000</i>
   <i type="int" name="LMAXMP2">    -1</i>
   <i name="SCISSOR">      0.00000000</i>
   <i type="int" name="NOMEGA">     0</i>
   <i type="int" name="NOMEGAR">     0</i>
   <i type="int" name="NBANDSGW">    -1</i>
   <i type="int" name="NBANDSO">    -1</i>
   <i type="int" name="NBANDSV">    -1</i>
   <i type="int" name="NELM">     1</i>
   <i type="int" name="NELMHF">     1</i>
   <i type="int" name="DIM">     3</i>
   <i type="int" name="ANTIRES">     0</i>
   <i name="OMEGAMAX">    -30.00000000</i>
   <i name="OMEGAMIN">    -30.00000000</i>
   <i name="OMEGATL">   -200.00000000</i>
   <i type="int" name="OMEGAGRID">   140</i>
   <i name="CSHIFT">     -0.10000000</i>
   <i type="logical" name="SELFENERGY"> F  </i>
   <i type="logical" name="LSPECTRAL"> F  </i>
   <i type="logical" name="LSPECTRALGW"> F  </i>
   <i type="logical" name="LSINGLES"> F  </i>
   <i type="logical" name="LFERMIGW"> F  </i>
   <i type="logical" name="ODDONLYGW"> F  </i>
   <i type="logical" name="EVENONLYGW"> F  </i>
   <i type="int" name="NKREDLFX">     1</i>
   <i type="int" name="NKREDLFY">     1</i>
   <i type="int" name="NKREDLFZ">     1</i>
   <i type="int" name="MAXMEM">  2800</i>
   <i type="int" name="TELESCOPE">     0</i>
   <i type="int" name="TAUPAR">     1</i>
   <i type="int" name="OMEGAPAR">    -1</i>
   <i name="LAMBDA">      1.00000000</i>
  </separator>
  <separator name="External order field" >
   <i name="OFIELD_KAPPA">      0.00000000</i>
   <v name="OFIELD_K">      0.00000000      0.00000000      0.00000000</v>
   <i name="OFIELD_Q6_NEAR">      0.00000000</i>
   <i name="OFIELD_Q6_FAR">      0.00000000</i>
   <i name="OFIELD_A">      0.00000000</i>
  </separator>
 </parameters>
 <atominfo>
  <atoms>      15 </atoms>
  <types>       4 </types>
  <array name="atoms" >
   <dimension dim="1">ion</dimension>
   <field type="string">element</field>
   <field type="int">atomtype</field>
   <set>
    <rc><c>Pt</c><c>   1</c></rc>
    <rc><c>Pt</c><c>   1</c></rc>
    <rc><c>Pt</c><c>   1</c></rc>
    <rc><c>Pt</c><c>   1</c></rc>
    <rc><c>Pt</c><c>   1</c></rc>
    <rc><c>Pt</c><c>   1</c></rc>
    <rc><c>Pt</c><c>   1</c></rc>
    <rc><c>Pt</c><c>   1</c></rc>
    <rc><c>Pt</c><c>   1</c></rc>
    <rc><c>Ir</c><c>   2</c></rc>
    <rc><c>Ir</c><c>   2</c></rc>
    <rc><c>Ir</c><c>   2</c></rc>
    <rc><c>O </c><c>   3</c></rc>
    <rc><c>O </c><c>   3</c></rc>
    <rc><c>H </c><c>   4</c></rc>
   </set>
  </array>
  <array name="atomtypes" >
   <dimension dim="1">type</dimension>
   <field type="int">atomspertype</field>
   <field type="string">element</field>
   <field>mass</field>
   <field>valence</field>
   <field type="string">pseudopotential</field>
   <set>
    <rc><c>   9</c><c>Pt</c><c>    195.08000000</c><c>     10.00000000</c><c> PAW_PBE Pt 05Jan2001                   </c></rc>
    <rc><c>   3</c><c>Ir</c><c>    192.22000000</c><c>      9.00000000</c><c> PAW_PBE Ir 06Sep2000                   </c></rc>
    <rc><c>   2</c><c>O </c><c>     16.00000000</c><c>      6.00000000</c><c> PAW_PBE O 08Apr2002                    </c></rc>
    <rc><c>   1</c><c>H </c><c>      1.00000000</c><c>      1.00000000</c><c> PAW_PBE H 15Jun2001                    </c></rc>
   </set>
  </array>
 </atominfo>
 <structure name="initialpos" >
  <crystal>
   <varray name="basis" >
    <v>       4.88428255       0.00000000       0.00000000 </v>
    <v>       2.44214127       4.22991277       0.00000000 </v>
    <v>       0.00000000       0.00000000      22.10741862 </v>
   </varray>
   <i name="volume">    456.74123834 </i>
   <varray name="rec_basis" >
    <v>       0.20473836      -0.11820575       0.00000000 </v>
    <v>      -0.00000000       0.23641149       0.00000000 </v>
    <v>       0.00000000       0.00000000       0.04523368 </v>
   </varray>
  </crystal>
  <varray name="positions" >
   <v>       0.30286415       0.49410690       0.00209390 </v>
   <v>       0.63619748       0.82744023       0.00209390 </v>
   <v>       0.96953081       0.16077357       0.00209390 </v>
   <v>       0.63619748       0.49410690       0.10624323 </v>
   <v>       0.96953081       0.82744023       0.10624323 </v>
   <v>       0.30286415       0.16077357       0.10624323 </v>
   <v>       0.30286415       0.49410690       0.30606275 </v>
   <v>       0.63619748       0.82744023       0.30606275 </v>
   <v>       0.96953081       0.16077357       0.30606275 </v>
   <v>       0.96953081       0.49410690       0.20490853 </v>
   <v>       0.30286415       0.82744023       0.20490853 </v>
   <v>       0.63619748       0.16077357       0.20490853 </v>
   <v>       0.76871130       0.99259116       0.43532491 </v>
   <v>       0.63852722       0.81279312       0.40965579 </v>
   <v>       0.99225302       0.83012516       0.44138925 </v>
  </varray>
  <varray name="selective"  type="logical" >
   <v type="logical" >  F  F  F </v>
   <v type="logical" >  F  F  F </v>
   <v type="logical" >  F  F  F </v>
   <v type="logical" >  F  F  F </v>
   <v type="logical" >  F  F  F </v>
   <v type="logical" >  F  F  F </v>
   <v type="logical" >  T  T  T </v>
   <v type="logical" >  T  T  T </v>
   <v type="logical" >  T  T  T </v>
   <v type="logical" >  T  T  T </v>
   <v type="logical" >  T  T  T </v>
   <v type="logical" >  T  T  T </v>
   <v type="logical" >  T  T  T </v>
   <v type="logical" >  T  T  T </v>
   <v type="logical" >  T  T  T </v>
  </varray>
  <nose>
   <v>      -3.00000000       0.00000000       0.00010000       0.00010000 </v>
  </nose>
 </structure>
 <calculation>
  <scstep>
   <time name="dav">    7.26    7.38</time>
   <time name="total">    7.33    7.49</time>
   <dipole>
    <v name="dipole">      0.00000000       0.00000000      -0.00007288 </v>
    <i name="Tr[quadrupol]">   -529.21046321 </i>
    <i name="Echarged">      0.00000000 </i>
    <i name="Edipol_quadrupol">      0.00000000 </i>
    <i name="Eion">      0.00000000 </i>
   </dipole>
   <energy>
    <i name="alphaZ">    494.69164433 </i>
    <i name="ewald">  29096.97866031 </i>
    <i name="hartreedc"> -38801.01143717 </i>
    <i name="XCdc">     32.45364877 </i>
    <i name="pawpsdc">   7026.54537208 </i>
    <i name="pawaedc">  -6654.46281543 </i>
    <i name="eentropy">     -0.00227553 </i>
    <i name="bandstr">    992.24232645 </i>
    <i name="atom">   9118.66506496 </i>
    <i name="e_fr_energy">   1306.10018878 </i>
    <i name="e_wo_entrp">   1306.10246431 </i>
    <i name="e_0_energy">   1306.10075766 </i>
   </energy>
  </scstep>
  <scstep>
   <time name="dav">    7.29    7.29</time>
   <time name="total">    7.30    7.31</time>
   <dipole>
    <v name="dipole">      0.00000000       0.00000000      -0.00007288 </v>
    <i name="Tr[quadrupol]">   -529.21046321 </i>
    <i name="Echarged">      0.00000000 </i>
    <i name="Edipol_quadrupol">      0.00000000 </i>
    <i name="Eion">      0.00000000 </i>
   </dipole>
   <energy>
    <i name="e_fr_energy">     63.53608819 </i>
    <i name="e_wo_entrp">     63.53759681 </i>
    <i name="e_0_energy">     63.53646535 </i>
   </energy>
  </scstep>
  <scstep>
   <time name="dav">    9.48    9.49</time>
   <time name="total">    9.50    9.51</time>
   <dipole>
    <v name="dipole">      0.00000000       0.00000000      -0.00007288 </v>
    <i name="Tr[quadrupol]">   -529.21046321 </i>
    <i name="Echarged">      0.00000000 </i>
    <i name="Edipol_quadrupol">      0.00000000 </i>
    <i name="Eion">      0.00000000 </i>
   </dipole>
   <energy>
    <i name="e_fr_energy">    -88.57134467 </i>
    <i name="e_wo_entrp">    -88.56549978 </i>
    <i name="e_0_energy">    -88.56988345 </i>
   </energy>
  </scstep>
  <scstep>
   <time name="dav">    9.12    9.13</time>
   <time name="total">    9.14    9.15</time>
   <dipole>
    <v name="dipole">      0.00000000       0.00000000      -0.00007288 </v>
    <i name="Tr[quadrupol]">   -529.21046321 </i>
    <i name="Echarged">      0.00000000 </i>
    <i name="Edipol_quadrupol">      0.00000000 </i>
    <i name="Eion">      0.00000000 </i>
   </dipole>
   <energy>
    <i name="e_fr_energy">   -100.12500558 </i>
    <i name="e_wo_entrp">   -100.12947905 </i>
    <i name="e_0_energy">   -100.12612395 </i>
   </energy>
  </scstep>
  <scstep>
   <time name="dav">    9.78    9.79</time>
   <time name="total">   10.28   10.30</time>
   <dipole>
    <v name="dipole">      0.00000000       0.00000000      -0.00007288 </v>
    <i name="Tr[quadrupol]">   -529.21046321 </i>
    <i name="Echarged">      0.00000000 </i>
    <i name="Edipol_quadrupol">      0.00000000 </i>
    <i name="Eion">      0.00000000 </i>
   </dipole>
   <energy>
    <i name="e_fr_energy">   -100.52041778 </i>
    <i name="e_wo_entrp">   -100.52545695 </i>
    <i name="e_0_energy">   -100.52167757 </i>
   </energy>
  </scstep>
  <scstep>
   <time name="dav">   10.44   10.45</time>
   <time name="total">   10.94   10.96</time>
   <dipole>
    <v name="dipole">      0.00000000       0.00000000       0.24010838 </v>
    <i name="Tr[quadrupol]">   -526.00297319 </i>
    <i name="Echarged">      0.00000000 </i>
    <i name="Edipol_quadrupol">      0.00000000 </i>
    <i name="Eion">      0.00000000 </i>
   </dipole>
   <energy>
    <i name="e_fr_energy">    -97.68536550 </i>
    <i name="e_wo_entrp">    -97.67702692 </i>
    <i name="e_0_energy">    -97.68328086 </i>
   </energy>
  </scstep>
  <scstep>
   <time name="dav">   11.79   11.80</time>
   <time name="total">   12.30   12.31</time>
   <dipole>
    <v name="dipole">      0.00000000       0.00000000      -0.64040254 </v>
    <i name="Tr[quadrupol]">   -528.98311709 </i>
    <i name="Echarged">      0.00000000 </i>
    <i name="Edipol_quadrupol">      0.00000000 </i>
    <i name="Eion">      0.00000000 </i>
   </dipole>
   <energy>
    <i name="e_fr_energy">   -111.97455881 </i>
    <i name="e_wo_entrp">   -111.98522007 </i>
    <i name="e_0_energy">   -111.97722412 </i>
   </energy>
  </scstep>
  <scstep>
   <time name="dav">   11.06   11.07</time>
   <time name="total">   11.56   11.56</time>
   <dipole>
    <v name="dipole">      0.00000000       0.00000000       0.06045687 </v>
    <i name="Tr[quadrupol]">   -530.56849497 </i>
    <i name="Echarged">      0.00000000 </i>
    <i name="Edipol_quadrupol">      0.00000000 </i>
    <i name="Eion">      0.00000000 </i>
   </dipole>
   <energy>
    <i name="e_fr_energy">    -98.37394145 </i>
    <i name="e_wo_entrp">    -98.36941106 </i>
    <i name="e_0_energy">    -98.37280886 </i>
   </energy>
  </scstep>
  <scstep>
   <time name="dav">   10.27   10.27</time>
   <time name="total">   10.78   10.78</time>
   <dipole>
    <v name="dipole">      0.00000000       0.00000000      -0.03295104 </v>
    <i name="Tr[quadrupol]">   -529.19833562 </i>
    <i name="Echarged">      0.00000000 </i>
    <i name="Edipol_quadrupol">      0.00000000 </i>
    <i name="Eion">      0.00000000 </i>
   </dipole>
   <energy>
    <i name="e_fr_energy">    -93.56202477 </i>
    <i name="e_wo_entrp">    -93.56201404 </i>
    <i name="e_0_energy">    -93.56202209 </i>
   </energy>
  </scstep>
  <scstep>
   <time name="dav">    9.96    9.97</time>
   <time name="total">   10.47   10.47</time>
   <dipole>
    <v name="dipole">      0.00000000       0.00000000      -0.05410843 </v>
    <i name="Tr[quadrupol]">   -529.17055792 </i>
    <i name="Echarged">      0.00000000 </i>
    <i name="Edipol_quadrupol">      0.00000000 </i>
    <i name="Eion">      0.00000000 </i>
   </dipole>
   <energy>
    <i name="e_fr_energy">    -92.66064459 </i>
    <i name="e_wo_entrp">    -92.67096195 </i>
    <i name="e_0_energy">    -92.66322393 </i>
   </energy>
  </scstep>
  <scstep>
   <time name="dav">    9.11    9.12</time>
   <time name="total">    9.62    9.63</time>
   <dipole>
    <v name="dipole">      0.00000000       0.00000000      -0.03275985 </v>
    <i name="Tr[quadrupol]">   -529.05863450 </i>
    <i name="Echarged">      0.00000000 </i>
    <i name="Edipol_quadrupol">      0.00000000 </i>
    <i name="Eion">      0.00000000 </i>
   </dipole>
   <energy>
    <i name="e_fr_energy">    -92.26679701 </i>
    <i name="e_wo_entrp">    -92.27496862 </i>
    <i name="e_0_energy">    -92.26883991 </i>
   </energy>
  </scstep>
  <scstep>
   <time name="dav">   11.66   11.67</time>
   <time name="total">   12.35   12.36</time>
   <dipole>
    <v name="dipole">      0.00000000       0.00000000       0.00769424 </v>
    <i name="Tr[quadrupol]">   -528.81322667 </i>
    <i name="Echarged">      0.00000000 </i>
    <i name="Edipol_quadrupol">      0.00000000 </i>
    <i name="Eion">      0.00000000 </i>
   </dipole>
   <energy>
    <i name="e_fr_energy">    -91.95011302 </i>
    <i name="e_wo_entrp">    -91.96180644 </i>
    <i name="e_0_energy">    -91.95303637 </i>
   </energy>
  </scstep>
  <scstep>
   <time name="dav">   12.89   12.99</time>
   <time name="total">   13.41   13.51</time>
   <dipole>
    <v name="dipole">      0.00000000       0.00000000       0.02699730 </v>
    <i name="Tr[quadrupol]">   -528.75958684 </i>
    <i name="Echarged">      0.00000000 </i>
    <i name="Edipol_quadrupol">      0.00000000 </i>
    <i name="Eion">      0.00000000 </i>
   </dipole>
   <energy>
    <i name="e_fr_energy">    -91.86801097 </i>
    <i name="e_wo_entrp">    -91.86907753 </i>
    <i name="e_0_energy">    -91.86827761 </i>
   </energy>
  </scstep>
  <scstep>
   <time name="dav">   10.79   10.79</time>
   <time name="total">   11.29   11.30</time>
   <dipole>
    <v name="dipole">      0.00000000       0.00000000       0.04297350 </v>
    <i name="Tr[quadrupol]">   -528.64454626 </i>
    <i name="Echarged">      0.00000000 </i>
    <i name="Edipol_quadrupol">      0.00000000 </i>
    <i name="Eion">      0.00000000 </i>
   </dipole>
   <energy>
    <i name="e_fr_energy">    -91.77662446 </i>
    <i name="e_wo_entrp">    -91.77935893 </i>
    <i name="e_0_energy">    -91.77730807 </i>
   </energy>
  </scstep>
  <scstep>
   <time name="dav">    9.79    9.80</time>
   <time name="total">   10.30   10.30</time>
   <dipole>
    <v name="dipole">      0.00000000       0.00000000       0.03154654 </v>
    <i name="Tr[quadrupol]">   -528.67431638 </i>
    <i name="Echarged">      0.00000000 </i>
    <i name="Edipol_quadrupol">      0.00000000 </i>
    <i name="Eion">      0.00000000 </i>
   </dipole>
   <energy>
    <i name="e_fr_energy">    -91.79461203 </i>
    <i name="e_wo_entrp">    -91.80063906 </i>
    <i name="e_0_energy">    -91.79611879 </i>
   </energy>
  </scstep>
  <scstep>
   <time name="dav">    9.63    9.63</time>
   <time name="total">   10.13   10.14</time>
   <dipole>
    <v name="dipole">      0.00000000       0.00000000       0.03594405 </v>
    <i name="Tr[quadrupol]">   -528.69925411 </i>
    <i name="Echarged">      0.00000000 </i>
    <i name="Edipol_quadrupol">      0.00000000 </i>
    <i name="Eion">      0.00000000 </i>
   </dipole>
   <energy>
    <i name="e_fr_energy">    -91.76664257 </i>
    <i name="e_wo_entrp">    -91.77214789 </i>
    <i name="e_0_energy">    -91.76801890 </i>
   </energy>
  </scstep>
  <scstep>
   <time name="dav">   11.43   11.43</time>
   <time name="total">   11.93   11.94</time>
   <dipole>
    <v name="dipole">      0.00000000       0.00000000       0.04565287 </v>
    <i name="Tr[quadrupol]">   -528.67795474 </i>
    <i name="Echarged">      0.00000000 </i>
    <i name="Edipol_quadrupol">      0.00000000 </i>
    <i name="Eion">      0.00000000 </i>
   </dipole>
   <energy>
    <i name="e_fr_energy">    -91.75401429 </i>
    <i name="e_wo_entrp">    -91.75732569 </i>
    <i name="e_0_energy">    -91.75484214 </i>
   </energy>
  </scstep>
  <scstep>
   <time name="dav">    9.21    9.21</time>
   <time name="total">    9.71    9.71</time>
   <dipole>
    <v name="dipole">      0.00000000       0.00000000       0.04715586 </v>
    <i name="Tr[quadrupol]">   -528.70543616 </i>
    <i name="Echarged">      0.00000000 </i>
    <i name="Edipol_quadrupol">      0.00000000 </i>
    <i name="Eion">      0.00000000 </i>
   </dipole>
   <energy>
    <i name="e_fr_energy">    -91.75463269 </i>
    <i name="e_wo_entrp">    -91.75726198 </i>
    <i name="e_0_energy">    -91.75529002 </i>
   </energy>
  </scstep>
  <scstep>
   <time name="dav">    8.02    8.02</time>
   <time name="total">    8.52    8.52</time>
   <dipole>
    <v name="dipole">      0.00000000       0.00000000       0.04324033 </v>
    <i name="Tr[quadrupol]">   -528.72723889 </i>
    <i name="Echarged">      0.00000000 </i>
    <i name="Edipol_quadrupol">      0.00000000 </i>
    <i name="Eion">      0.00000000 </i>
   </dipole>
   <energy>
    <i name="e_fr_energy">    -91.75353592 </i>
    <i name="e_wo_entrp">    -91.75696715 </i>
    <i name="e_0_energy">    -91.75439373 </i>
   </energy>
  </scstep>
  <scstep>
   <time name="dav">    9.67    9.68</time>
   <time name="total">   10.18   10.18</time>
   <dipole>
    <v name="dipole">      0.00000000       0.00000000       0.04162559 </v>
    <i name="Tr[quadrupol]">   -528.75342859 </i>
    <i name="Echarged">      0.00000000 </i>
    <i name="Edipol_quadrupol">      0.00000000 </i>
    <i name="Eion">      0.00000000 </i>
   </dipole>
   <energy>
    <i name="e_fr_energy">    -91.75319900 </i>
    <i name="e_wo_entrp">    -91.75688396 </i>
    <i name="e_0_energy">    -91.75412024 </i>
   </energy>
  </scstep>
  <scstep>
   <time name="dav">    9.93    9.93</time>
   <time name="total">   10.43   10.43</time>
   <dipole>
    <v name="dipole">      0.00000000       0.00000000       0.04046927 </v>
    <i name="Tr[quadrupol]">   -528.80037308 </i>
    <i name="Echarged">      0.00000000 </i>
    <i name="Edipol_quadrupol">      0.00000000 </i>
    <i name="Eion">      0.00000000 </i>
   </dipole>
   <energy>
    <i name="e_fr_energy">    -91.75317694 </i>
    <i name="e_wo_entrp">    -91.75704079 </i>
    <i name="e_0_energy">    -91.75414290 </i>
   </energy>
  </scstep>
  <scstep>
   <time name="dav">   10.07   10.08</time>
   <time name="total">   10.57   10.58</time>
   <dipole>
    <v name="dipole">      0.00000000       0.00000000       0.03847739 </v>
    <i name="Tr[quadrupol]">   -528.84310125 </i>
    <i name="Echarged">      0.00000000 </i>
    <i name="Edipol_quadrupol">      0.00000000 </i>
    <i name="Eion">      0.00000000 </i>
   </dipole>
   <energy>
    <i name="e_fr_energy">    -91.75325522 </i>
    <i name="e_wo_entrp">    -91.75752093 </i>
    <i name="e_0_energy">    -91.75432164 </i>
   </energy>
  </scstep>
  <scstep>
   <time name="dav">    9.10    9.17</time>
   <time name="total">    9.60    9.67</time>
   <dipole>
    <v name="dipole">      0.00000000       0.00000000       0.03778007 </v>
    <i name="Tr[quadrupol]">   -528.85783618 </i>
    <i name="Echarged">      0.00000000 </i>
    <i name="Edipol_quadrupol">      0.00000000 </i>
    <i name="Eion">      0.00000000 </i>
   </dipole>
   <energy>
    <i name="e_fr_energy">    -91.75320428 </i>
    <i name="e_wo_entrp">    -91.75752782 </i>
    <i name="e_0_energy">    -91.75428516 </i>
   </energy>
  </scstep>
  <scstep>
   <time name="dav">   10.12   10.12</time>
   <time name="total">   10.63   10.63</time>
   <dipole>
    <v name="dipole">      0.00000000       0.00000000       0.03768114 </v>
    <i name="Tr[quadrupol]">   -528.86552222 </i>
    <i name="Echarged">      0.00000000 </i>
    <i name="Edipol_quadrupol">      0.00000000 </i>
    <i name="Eion">      0.00000000 </i>
   </dipole>
   <energy>
    <i name="e_fr_energy">    -91.75316774 </i>
    <i name="e_wo_entrp">    -91.75736412 </i>
    <i name="e_0_energy">    -91.75421684 </i>
   </energy>
  </scstep>
  <scstep>
   <time name="dav">    8.81    8.81</time>
   <time name="total">    9.31    9.31</time>
   <dipole>
    <v name="dipole">      0.00000000       0.00000000       0.03698268 </v>
    <i name="Tr[quadrupol]">   -528.89437031 </i>
    <i name="Echarged">      0.00000000 </i>
    <i name="Edipol_quadrupol">      0.00000000 </i>
    <i name="Eion">      0.00000000 </i>
   </dipole>
   <energy>
    <i name="e_fr_energy">    -91.75317868 </i>
    <i name="e_wo_entrp">    -91.75736006 </i>
    <i name="e_0_energy">    -91.75422402 </i>
   </energy>
  </scstep>
  <scstep>
   <time name="dav">    8.97    9.07</time>
   <time name="total">    9.47    9.57</time>
   <dipole>
    <v name="dipole">      0.00000000       0.00000000       0.03728796 </v>
    <i name="Tr[quadrupol]">   -528.92962657 </i>
    <i name="Echarged">      0.00000000 </i>
    <i name="Edipol_quadrupol">      0.00000000 </i>
    <i name="Eion">      0.00000000 </i>
   </dipole>
   <energy>
    <i name="e_fr_energy">    -91.75323197 </i>
    <i name="e_wo_entrp">    -91.75728265 </i>
    <i name="e_0_energy">    -91.75424464 </i>
   </energy>
  </scstep>
  <scstep>
   <time name="dav">   11.83   11.83</time>
   <time name="total">   12.33   12.34</time>
   <dipole>
    <v name="dipole">      0.00000000       0.00000000       0.02893594 </v>
    <i name="Tr[quadrupol]">   -528.89506460 </i>
    <i name="Echarged">      0.00000000 </i>
    <i name="Edipol_quadrupol">      0.00000000 </i>
    <i name="Eion">      0.00000000 </i>
   </dipole>
   <energy>
    <i name="e_fr_energy">    -91.75399304 </i>
    <i name="e_wo_entrp">    -91.75890575 </i>
    <i name="e_0_energy">    -91.75522121 </i>
   </energy>
  </scstep>
  <scstep>
   <time name="dav">   11.39   11.46</time>
   <time name="total">   11.90   11.97</time>
   <dipole>
    <v name="dipole">      0.00000000       0.00000000       0.03355674 </v>
    <i name="Tr[quadrupol]">   -528.93304943 </i>
    <i name="Echarged">      0.00000000 </i>
    <i name="Edipol_quadrupol">      0.00000000 </i>
    <i name="Eion">      0.00000000 </i>
   </dipole>
   <energy>
    <i name="e_fr_energy">    -91.75343967 </i>
    <i name="e_wo_entrp">    -91.75772780 </i>
    <i name="e_0_energy">    -91.75451170 </i>
   </energy>
  </scstep>
  <scstep>
   <time name="dav">    8.99    8.99</time>
   <time name="total">    9.49    9.49</time>
   <dipole>
    <v name="dipole">      0.00000000       0.00000000       0.03037349 </v>
    <i name="Tr[quadrupol]">   -528.90952104 </i>
    <i name="Echarged">      0.00000000 </i>
    <i name="Edipol_quadrupol">      0.00000000 </i>
    <i name="Eion">      0.00000000 </i>
   </dipole>
   <energy>
    <i name="e_fr_energy">    -91.75362037 </i>
    <i name="e_wo_entrp">    -91.75808391 </i>
    <i name="e_0_energy">    -91.75473625 </i>
   </energy>
  </scstep>
  <scstep>
   <time name="dav">    9.95    9.96</time>
   <time name="total">   10.45   10.46</time>
   <dipole>
    <v name="dipole">      0.00000000       0.00000000       0.03095920 </v>
    <i name="Tr[quadrupol]">   -528.90540970 </i>
    <i name="Echarged">      0.00000000 </i>
    <i name="Edipol_quadrupol">      0.00000000 </i>
    <i name="Eion">      0.00000000 </i>
   </dipole>
   <energy>
    <i name="e_fr_energy">    -91.75362409 </i>
    <i name="e_wo_entrp">    -91.75784108 </i>
    <i name="e_0_energy">    -91.75467834 </i>
   </energy>
  </scstep>
  <scstep>
   <time name="dav">   11.63   11.70</time>
   <time name="total">   12.13   12.21</time>
   <dipole>
    <v name="dipole">      0.00000000       0.00000000       0.03396022 </v>
    <i name="Tr[quadrupol]">   -528.91800293 </i>
    <i name="Echarged">      0.00000000 </i>
    <i name="Edipol_quadrupol">      0.00000000 </i>
    <i name="Eion">      0.00000000 </i>
   </dipole>
   <energy>
    <i name="e_fr_energy">    -91.75394092 </i>
    <i name="e_wo_entrp">    -91.75762945 </i>
    <i name="e_0_energy">    -91.75486305 </i>
   </energy>
  </scstep>
  <scstep>
   <time name="dav">    7.86    7.86</time>
   <time name="total">    8.37    8.37</time>
   <dipole>
    <v name="dipole">      0.00000000       0.00000000       0.03390969 </v>
    <i name="Tr[quadrupol]">   -528.91476191 </i>
    <i name="Echarged">      0.00000000 </i>
    <i name="Edipol_quadrupol">      0.00000000 </i>
    <i name="Eion">      0.00000000 </i>
   </dipole>
   <energy>
    <i name="e_fr_energy">    -91.75390781 </i>
    <i name="e_wo_entrp">    -91.75765515 </i>
    <i name="e_0_energy">    -91.75484465 </i>
   </energy>
  </scstep>
  <scstep>
   <time name="dav">    5.80    5.80</time>
   <time name="total">    6.31    6.32</time>
   <dipole>
    <v name="dipole">      0.00000000       0.00000000       0.03377245 </v>
    <i name="Tr[quadrupol]">   -528.91417780 </i>
    <i name="Echarged">      0.00000000 </i>
    <i name="Edipol_quadrupol">      0.00000000 </i>
    <i name="Eion">      0.00000000 </i>
   </dipole>
   <energy>
    <i name="e_fr_energy">    -91.75387803 </i>
    <i name="e_wo_entrp">    -91.75766687 </i>
    <i name="e_0_energy">    -91.75482524 </i>
   </energy>
  </scstep>
  <scstep>
   <time name="dav">    6.95    6.95</time>
   <time name="total">    7.45    7.46</time>
   <dipole>
    <v name="dipole">      0.00000000       0.00000000       0.03387782 </v>
    <i name="Tr[quadrupol]">   -528.91570795 </i>
    <i name="Echarged">      0.00000000 </i>
    <i name="Edipol_quadrupol">      0.00000000 </i>
    <i name="Eion">      0.00000000 </i>
   </dipole>
   <energy>
    <i name="e_fr_energy">    -91.75384711 </i>
    <i name="e_wo_entrp">    -91.75769007 </i>
    <i name="e_0_energy">    -91.75480785 </i>
   </energy>
  </scstep>
  <scstep>
   <time name="dav">    9.54    9.54</time>
   <time name="total">   10.04   10.05</time>
   <dipole>
    <v name="dipole">      0.00000000       0.00000000       0.03428354 </v>
    <i name="Tr[quadrupol]">   -528.92605021 </i>
    <i name="Echarged">      0.00000000 </i>
    <i name="Edipol_quadrupol">      0.00000000 </i>
    <i name="Eion">      0.00000000 </i>
   </dipole>
   <energy>
    <i name="e_fr_energy">    -91.75382690 </i>
    <i name="e_wo_entrp">    -91.75773741 </i>
    <i name="e_0_energy">    -91.75480453 </i>
   </energy>
  </scstep>
  <scstep>
   <time name="dav">    5.75    5.76</time>
   <time name="total">    6.26    6.26</time>
   <dipole>
    <v name="dipole">      0.00000000       0.00000000       0.03432371 </v>
    <i name="Tr[quadrupol]">   -528.92669601 </i>
    <i name="Echarged">      0.00000000 </i>
    <i name="Edipol_quadrupol">      0.00000000 </i>
    <i name="Eion">      0.00000000 </i>
   </dipole>
   <energy>
    <i name="e_fr_energy">    -91.75382224 </i>
    <i name="e_wo_entrp">    -91.75774586 </i>
    <i name="e_0_energy">    -91.75480315 </i>
   </energy>
  </scstep>
  <scstep>
   <time name="dav">    5.38    5.38</time>
   <time name="total">    5.89    5.89</time>
   <dipole>
    <v name="dipole">      0.00000000       0.00000000       0.03433551 </v>
    <i name="Tr[quadrupol]">   -528.93413338 </i>
    <i name="Echarged">      0.00000000 </i>
    <i name="Edipol_quadrupol">      0.00000000 </i>
    <i name="Eion">      0.00000000 </i>
   </dipole>
   <energy>
    <i name="e_fr_energy">    -91.75381898 </i>
    <i name="e_wo_entrp">    -91.75775787 </i>
    <i name="e_0_energy">    -91.75480370 </i>
   </energy>
  </scstep>
  <scstep>
   <time name="dav">    5.42    5.42</time>
   <time name="total">    5.93    5.94</time>
   <dipole>
    <v name="dipole">      0.00000000       0.00000000       0.03420662 </v>
    <i name="Tr[quadrupol]">   -528.93480254 </i>
    <i name="Echarged">      0.00000000 </i>
    <i name="Edipol_quadrupol">      0.00000000 </i>
    <i name="Eion">      0.00000000 </i>
   </dipole>
   <energy>
    <i name="e_fr_energy">    -91.75380866 </i>
    <i name="e_wo_entrp">    -91.75778575 </i>
    <i name="e_0_energy">    -91.75480293 </i>
   </energy>
  </scstep>
  <scstep>
   <time name="dav">    5.48    5.51</time>
   <time name="total">    6.05    6.08</time>
   <dipole>
    <v name="dipole">      0.00000000       0.00000000       0.03443493 </v>
    <i name="Tr[quadrupol]">   -528.98053750 </i>
    <i name="Echarged">      0.00000000 </i>
    <i name="Edipol_quadrupol">      0.00000000 </i>
    <i name="Eion">      0.00000000 </i>
   </dipole>
   <energy>
    <i name="e_fr_energy">    -91.75380710 </i>
    <i name="e_wo_entrp">    -91.75779515 </i>
    <i name="e_0_energy">    -91.75480411 </i>
   </energy>
  </scstep>
  <scstep>
   <time name="dav">    5.40    5.41</time>
   <time name="total">    5.91    5.92</time>
   <dipole>
    <v name="dipole">      0.00000000       0.00000000       0.03446978 </v>
    <i name="Tr[quadrupol]">   -528.99960978 </i>
    <i name="Echarged">      0.00000000 </i>
    <i name="Edipol_quadrupol">      0.00000000 </i>
    <i name="Eion">      0.00000000 </i>
   </dipole>
   <energy>
    <i name="e_fr_energy">    -91.75380341 </i>
    <i name="e_wo_entrp">    -91.75781023 </i>
    <i name="e_0_energy">    -91.75480512 </i>
   </energy>
  </scstep>
  <scstep>
   <time name="dav">    5.72    5.73</time>
   <time name="total">    6.23    6.24</time>
   <dipole>
    <v name="dipole">      0.00000000       0.00000000       0.03414102 </v>
    <i name="Tr[quadrupol]">   -529.00600559 </i>
    <i name="Echarged">      0.00000000 </i>
    <i name="Edipol_quadrupol">      0.00000000 </i>
    <i name="Eion">      0.00000000 </i>
   </dipole>
   <energy>
    <i name="e_fr_energy">    -91.75379679 </i>
    <i name="e_wo_entrp">    -91.75788918 </i>
    <i name="e_0_energy">    -91.75481989 </i>
   </energy>
  </scstep>
  <scstep>
   <time name="dav">    6.26    6.26</time>
   <time name="total">    6.30    6.30</time>
   <dipole>
    <v name="dipole">      0.00000000       0.00000000       0.03415819 </v>
    <i name="Tr[quadrupol]">   -529.01274060 </i>
    <i name="Echarged">      0.00000000 </i>
    <i name="Edipol_quadrupol">      0.00000000 </i>
    <i name="Eion">      0.00000000 </i>
   </dipole>
   <energy>
    <i name="alphaZ">    495.77127926 </i>
    <i name="ewald">  29096.97866031 </i>
    <i name="hartreedc"> -38688.46674456 </i>
    <i name="XCdc">     29.87781340 </i>
    <i name="pawpsdc">   7378.10406457 </i>
    <i name="pawaedc">  -7034.73215108 </i>
    <i name="eentropy">      0.00408522 </i>
    <i name="bandstr">   -487.95586908 </i>
    <i name="atom">   9118.66506496 </i>
    <i name="e_fr_energy">    -91.75379699 </i>
    <i name="e_wo_entrp">    -91.75788222 </i>
    <i name="e_0_energy">    -91.75481830 </i>
   </energy>
  </scstep>
  <structure>
   <crystal>
    <varray name="basis" >
     <v>       4.88428255       0.00000000       0.00000000 </v>
     <v>       2.44214127       4.22991277       0.00000000 </v>
     <v>       0.00000000       0.00000000      22.10741862 </v>
    </varray>
    <i name="volume">    456.74123834 </i>
    <varray name="rec_basis" >
     <v>       0.20473836      -0.11820575       0.00000000 </v>
     <v>      -0.00000000       0.23641149       0.00000000 </v>
     <v>       0.00000000       0.00000000       0.04523368 </v>
    </varray>
   </crystal>
   <varray name="positions" >
    <v>       0.30286415       0.49410690       0.00209390 </v>
    <v>       0.63619748       0.82744023       0.00209390 </v>
    <v>       0.96953081       0.16077357       0.00209390 </v>
    <v>       0.63619748       0.49410690       0.10624323 </v>
    <v>       0.96953081       0.82744023       0.10624323 </v>
    <v>       0.30286415       0.16077357       0.10624323 </v>
    <v>       0.30286415       0.49410690       0.30606275 </v>
    <v>       0.63619748       0.82744023       0.30606275 </v>
    <v>       0.96953081       0.16077357       0.30606275 </v>
    <v>       0.96953081       0.49410690       0.20490853 </v>
    <v>       0.30286415       0.82744023       0.20490853 </v>
    <v>       0.63619748       0.16077357       0.20490853 </v>
    <v>       0.76871130       0.99259116       0.43532491 </v>
    <v>       0.63852722       0.81279312       0.40965579 </v>
    <v>       0.99225302       0.83012516       0.44138925 </v>
   </varray>
  </structure>
  <varray name="forces" >
   <v>      -0.00281713      -0.00487478      -0.07666708 </v>
   <v>      -0.00621799       0.01106793      -0.16526954 </v>
   <v>       0.00178435      -0.00306603      -0.09739702 </v>
   <v>       0.03606682       0.05695661       0.11755450 </v>
   <v>      -0.07675065      -0.01480742       0.12424367 </v>
   <v>       0.02366628      -0.05526113       0.13824923 </v>
   <v>       0.00117446       0.03129547      -0.34680846 </v>
   <v>       0.09452582      -0.10946254       1.66463720 </v>
   <v>      -0.05364559      -0.02325171      -0.17318132 </v>
   <v>       0.00085229       0.04941957       0.09000798 </v>
   <v>      -0.00055163       0.02311351       0.04964110 </v>
   <v>      -0.01418757      -0.02472724       0.00873928 </v>
   <v>      -0.30065824      -0.28971806      -0.26956991 </v>
   <v>       0.32244783       0.29579798      -1.05946710 </v>
   <v>      -0.02568905       0.05751785      -0.00471253 </v>
  </varray>
  <varray name="stress" >
   <v>     -42.73024720      -0.86347153       0.04718711 </v>
   <v>      -0.86347151     -41.42472016      -0.07466081 </v>
   <v>       0.04718713      -0.07466083     -12.26720209 </v>
  </varray>
  <energy>
   <i name="e_fr_energy">    -91.75379699 </i>
   <i name="e_wo_entrp">    -91.75481830 </i>
   <i name="e_0_energy">      0.00408522 </i>
  </energy>
  <time name="totalsc">  403.79  404.68</time>
 </calculation>
 <calculation>
  <scstep>
   <time name="dav">    7.24    7.25</time>
   <time name="total">    7.76    7.76</time>
   <dipole>
    <v name="dipole">      0.00000000       0.00000000       0.03409304 </v>
    <i name="Tr[quadrupol]">   -528.89885211 </i>
    <i name="Echarged">      0.00000000 </i>
    <i name="Edipol_quadrupol">      0.00000000 </i>
    <i name="Eion">      0.00000000 </i>
   </dipole>
   <energy>
    <i name="alphaZ">    495.92971490 </i>
    <i name="ewald">  29097.58971263 </i>
    <i name="hartreedc"> -38688.44108833 </i>
    <i name="XCdc">     29.90789311 </i>
    <i name="pawpsdc">   7378.10292742 </i>
    <i name="pawaedc">  -7034.73079063 </i>
    <i name="eentropy">      0.00268155 </i>
    <i name="bandstr">   -488.84158444 </i>
    <i name="atom">   9118.66506496 </i>
    <i name="e_fr_energy">    -91.81546883 </i>
    <i name="e_wo_entrp">    -91.81815038 </i>
    <i name="e_0_energy">    -91.81613922 </i>
   </energy>
  </scstep>
  <scstep>
   <time name="dav">    9.08    9.08</time>
   <time name="total">    9.58    9.59</time>
   <dipole>
    <v name="dipole">      0.00000000       0.00000000       0.02116692 </v>
    <i name="Tr[quadrupol]">   -528.93149981 </i>
    <i name="Echarged">      0.00000000 </i>
    <i name="Edipol_quadrupol">      0.00000000 </i>
    <i name="Eion">      0.00000000 </i>
   </dipole>
   <energy>
    <i name="e_fr_energy">    -91.84274746 </i>
    <i name="e_wo_entrp">    -91.84803726 </i>
    <i name="e_0_energy">    -91.84406991 </i>
   </energy>
  </scstep>
  <scstep>
   <time name="dav">   11.03   11.03</time>
   <time name="total">   11.54   11.54</time>
   <dipole>
    <v name="dipole">      0.00000000       0.00000000       0.04464937 </v>
    <i name="Tr[quadrupol]">   -528.97950922 </i>
    <i name="Echarged">      0.00000000 </i>
    <i name="Edipol_quadrupol">      0.00000000 </i>
    <i name="Eion">      0.00000000 </i>
   </dipole>
   <energy>
    <i name="e_fr_energy">    -91.84904405 </i>
    <i name="e_wo_entrp">    -91.84849073 </i>
    <i name="e_0_energy">    -91.84890572 </i>
   </energy>
  </scstep>
  <scstep>
   <time name="dav">   11.08   11.11</time>
   <time name="total">   11.58   11.61</time>
   <dipole>
    <v name="dipole">      0.00000000       0.00000000       0.03098952 </v>
    <i name="Tr[quadrupol]">   -528.90511672 </i>
    <i name="Echarged">      0.00000000 </i>
    <i name="Edipol_quadrupol">      0.00000000 </i>
    <i name="Eion">      0.00000000 </i>
   </dipole>
   <energy>
    <i name="e_fr_energy">    -91.83523479 </i>
    <i name="e_wo_entrp">    -91.83881062 </i>
    <i name="e_0_energy">    -91.83612875 </i>
   </energy>
  </scstep>
  <scstep>
   <time name="dav">   10.72   10.72</time>
   <time name="total">   11.22   11.23</time>
   <dipole>
    <v name="dipole">      0.00000000       0.00000000       0.02813482 </v>
    <i name="Tr[quadrupol]">   -528.96543706 </i>
    <i name="Echarged">      0.00000000 </i>
    <i name="Edipol_quadrupol">      0.00000000 </i>
    <i name="Eion">      0.00000000 </i>
   </dipole>
   <energy>
    <i name="e_fr_energy">    -91.83372099 </i>
    <i name="e_wo_entrp">    -91.83698922 </i>
    <i name="e_0_energy">    -91.83453805 </i>
   </energy>
  </scstep>
  <scstep>
   <time name="dav">    9.58    9.58</time>
   <time name="total">   10.08   10.09</time>
   <dipole>
    <v name="dipole">      0.00000000       0.00000000       0.02757217 </v>
    <i name="Tr[quadrupol]">   -528.96194621 </i>
    <i name="Echarged">      0.00000000 </i>
    <i name="Edipol_quadrupol">      0.00000000 </i>
    <i name="Eion">      0.00000000 </i>
   </dipole>
   <energy>
    <i name="e_fr_energy">    -91.83348570 </i>
    <i name="e_wo_entrp">    -91.83721504 </i>
    <i name="e_0_energy">    -91.83441804 </i>
   </energy>
  </scstep>
  <scstep>
   <time name="dav">   10.66   10.66</time>
   <time name="total">   11.17   11.17</time>
   <dipole>
    <v name="dipole">      0.00000000       0.00000000       0.02888169 </v>
    <i name="Tr[quadrupol]">   -528.97257029 </i>
    <i name="Echarged">      0.00000000 </i>
    <i name="Edipol_quadrupol">      0.00000000 </i>
    <i name="Eion">      0.00000000 </i>
   </dipole>
   <energy>
    <i name="e_fr_energy">    -91.83307096 </i>
    <i name="e_wo_entrp">    -91.83589304 </i>
    <i name="e_0_energy">    -91.83377648 </i>
   </energy>
  </scstep>
  <scstep>
   <time name="dav">    9.51    9.51</time>
   <time name="total">   10.02   10.02</time>
   <dipole>
    <v name="dipole">      0.00000000       0.00000000       0.02808984 </v>
    <i name="Tr[quadrupol]">   -528.97132166 </i>
    <i name="Echarged">      0.00000000 </i>
    <i name="Edipol_quadrupol">      0.00000000 </i>
    <i name="Eion">      0.00000000 </i>
   </dipole>
   <energy>
    <i name="e_fr_energy">    -91.83304321 </i>
    <i name="e_wo_entrp">    -91.83624429 </i>
    <i name="e_0_energy">    -91.83384348 </i>
   </energy>
  </scstep>
  <scstep>
   <time name="dav">    9.79    9.80</time>
   <time name="total">   10.30   10.31</time>
   <dipole>
    <v name="dipole">      0.00000000       0.00000000       0.02803525 </v>
    <i name="Tr[quadrupol]">   -528.97318041 </i>
    <i name="Echarged">      0.00000000 </i>
    <i name="Edipol_quadrupol">      0.00000000 </i>
    <i name="Eion">      0.00000000 </i>
   </dipole>
   <energy>
    <i name="e_fr_energy">    -91.83299372 </i>
    <i name="e_wo_entrp">    -91.83614862 </i>
    <i name="e_0_energy">    -91.83378245 </i>
   </energy>
  </scstep>
  <scstep>
   <time name="dav">    9.73    9.73</time>
   <time name="total">   10.23   10.24</time>
   <dipole>
    <v name="dipole">      0.00000000       0.00000000       0.02813209 </v>
    <i name="Tr[quadrupol]">   -528.97304225 </i>
    <i name="Echarged">      0.00000000 </i>
    <i name="Edipol_quadrupol">      0.00000000 </i>
    <i name="Eion">      0.00000000 </i>
   </dipole>
   <energy>
    <i name="e_fr_energy">    -91.83299272 </i>
    <i name="e_wo_entrp">    -91.83609434 </i>
    <i name="e_0_energy">    -91.83376812 </i>
   </energy>
  </scstep>
  <scstep>
   <time name="dav">    9.18    9.19</time>
   <time name="total">    9.69    9.69</time>
   <dipole>
    <v name="dipole">      0.00000000       0.00000000       0.02781172 </v>
    <i name="Tr[quadrupol]">   -528.97320386 </i>
    <i name="Echarged">      0.00000000 </i>
    <i name="Edipol_quadrupol">      0.00000000 </i>
    <i name="Eion">      0.00000000 </i>
   </dipole>
   <energy>
    <i name="e_fr_energy">    -91.83299716 </i>
    <i name="e_wo_entrp">    -91.83617140 </i>
    <i name="e_0_energy">    -91.83379072 </i>
   </energy>
  </scstep>
  <scstep>
   <time name="dav">   11.41   11.42</time>
   <time name="total">   11.92   11.93</time>
   <dipole>
    <v name="dipole">      0.00000000       0.00000000       0.02771056 </v>
    <i name="Tr[quadrupol]">   -528.97399806 </i>
    <i name="Echarged">      0.00000000 </i>
    <i name="Edipol_quadrupol">      0.00000000 </i>
    <i name="Eion">      0.00000000 </i>
   </dipole>
   <energy>
    <i name="e_fr_energy">    -91.83299839 </i>
    <i name="e_wo_entrp">    -91.83616988 </i>
    <i name="e_0_energy">    -91.83379127 </i>
   </energy>
  </scstep>
  <scstep>
   <time name="dav">    5.78    5.79</time>
   <time name="total">    6.29    6.30</time>
   <dipole>
    <v name="dipole">      0.00000000       0.00000000       0.02762767 </v>
    <i name="Tr[quadrupol]">   -528.97431287 </i>
    <i name="Echarged">      0.00000000 </i>
    <i name="Edipol_quadrupol">      0.00000000 </i>
    <i name="Eion">      0.00000000 </i>
   </dipole>
   <energy>
    <i name="e_fr_energy">    -91.83300172 </i>
    <i name="e_wo_entrp">    -91.83616468 </i>
    <i name="e_0_energy">    -91.83379246 </i>
   </energy>
  </scstep>
  <scstep>
   <time name="dav">    5.60    5.60</time>
   <time name="total">    6.11    6.11</time>
   <dipole>
    <v name="dipole">      0.00000000       0.00000000       0.02751749 </v>
    <i name="Tr[quadrupol]">   -528.97486080 </i>
    <i name="Echarged">      0.00000000 </i>
    <i name="Edipol_quadrupol">      0.00000000 </i>
    <i name="Eion">      0.00000000 </i>
   </dipole>
   <energy>
    <i name="e_fr_energy">    -91.83300538 </i>
    <i name="e_wo_entrp">    -91.83617073 </i>
    <i name="e_0_energy">    -91.83379672 </i>
   </energy>
  </scstep>
  <scstep>
   <time name="dav">    5.44    5.44</time>
   <time name="total">    5.95    5.95</time>
   <dipole>
    <v name="dipole">      0.00000000       0.00000000       0.02742969 </v>
    <i name="Tr[quadrupol]">   -528.97532148 </i>
    <i name="Echarged">      0.00000000 </i>
    <i name="Edipol_quadrupol">      0.00000000 </i>
    <i name="Eion">      0.00000000 </i>
   </dipole>
   <energy>
    <i name="e_fr_energy">    -91.83300864 </i>
    <i name="e_wo_entrp">    -91.83616462 </i>
    <i name="e_0_energy">    -91.83379764 </i>
   </energy>
  </scstep>
  <scstep>
   <time name="dav">    5.64    5.64</time>
   <time name="total">    6.15    6.15</time>
   <dipole>
    <v name="dipole">      0.00000000       0.00000000       0.02732406 </v>
    <i name="Tr[quadrupol]">   -528.97582480 </i>
    <i name="Echarged">      0.00000000 </i>
    <i name="Edipol_quadrupol">      0.00000000 </i>
    <i name="Eion">      0.00000000 </i>
   </dipole>
   <energy>
    <i name="e_fr_energy">    -91.83301187 </i>
    <i name="e_wo_entrp">    -91.83616630 </i>
    <i name="e_0_energy">    -91.83380048 </i>
   </energy>
  </scstep>
  <scstep>
   <time name="dav">    5.48    5.49</time>
   <time name="total">    6.04    6.05</time>
   <dipole>
    <v name="dipole">      0.00000000       0.00000000       0.02721946 </v>
    <i name="Tr[quadrupol]">   -528.97625020 </i>
    <i name="Echarged">      0.00000000 </i>
    <i name="Edipol_quadrupol">      0.00000000 </i>
    <i name="Eion">      0.00000000 </i>
   </dipole>
   <energy>
    <i name="e_fr_energy">    -91.83301431 </i>
    <i name="e_wo_entrp">    -91.83616847 </i>
    <i name="e_0_energy">    -91.83380285 </i>
   </energy>
  </scstep>
  <scstep>
   <time name="dav">    5.76    5.76</time>
   <time name="total">    6.27    6.27</time>
   <dipole>
    <v name="dipole">      0.00000000       0.00000000       0.02707085 </v>
    <i name="Tr[quadrupol]">   -528.97192583 </i>
    <i name="Echarged">      0.00000000 </i>
    <i name="Edipol_quadrupol">      0.00000000 </i>
    <i name="Eion">      0.00000000 </i>
   </dipole>
   <energy>
    <i name="e_fr_energy">    -91.83301686 </i>
    <i name="e_wo_entrp">    -91.83616866 </i>
    <i name="e_0_energy">    -91.83380481 </i>
   </energy>
  </scstep>
  <scstep>
   <time name="dav">    5.45    5.45</time>
   <time name="total">    5.96    5.96</time>
   <dipole>
    <v name="dipole">      0.00000000       0.00000000       0.02693686 </v>
    <i name="Tr[quadrupol]">   -528.97247507 </i>
    <i name="Echarged">      0.00000000 </i>
    <i name="Edipol_quadrupol">      0.00000000 </i>
    <i name="Eion">      0.00000000 </i>
   </dipole>
   <energy>
    <i name="e_fr_energy">    -91.83301794 </i>
    <i name="e_wo_entrp">    -91.83616933 </i>
    <i name="e_0_energy">    -91.83380579 </i>
   </energy>
  </scstep>
  <scstep>
   <time name="dav">    5.29    5.29</time>
   <time name="total">    5.33    5.33</time>
   <dipole>
    <v name="dipole">      0.00000000       0.00000000       0.02687339 </v>
    <i name="Tr[quadrupol]">   -528.96782186 </i>
    <i name="Echarged">      0.00000000 </i>
    <i name="Edipol_quadrupol">      0.00000000 </i>
    <i name="Eion">      0.00000000 </i>
   </dipole>
   <energy>
    <i name="alphaZ">    495.79519084 </i>
    <i name="ewald">  29097.58971263 </i>
    <i name="hartreedc"> -38690.70786858 </i>
    <i name="XCdc">     29.94172051 </i>
    <i name="pawpsdc">   7379.02818190 </i>
    <i name="pawaedc">  -7035.66486611 </i>
    <i name="eentropy">      0.00315101 </i>
    <i name="bandstr">   -486.48330543 </i>
    <i name="atom">   9118.66506496 </i>
    <i name="e_fr_energy">    -91.83301827 </i>
    <i name="e_wo_entrp">    -91.83616929 </i>
    <i name="e_0_energy">    -91.83380603 </i>
   </energy>
  </scstep>
  <structure>
   <crystal>
    <varray name="basis" >
     <v>       4.88428255       0.00000000       0.00000000 </v>
     <v>       2.44214127       4.22991277       0.00000000 </v>
     <v>       0.00000000       0.00000000      22.10741862 </v>
    </varray>
    <i name="volume">    456.74123834 </i>
    <varray name="rec_basis" >
     <v>       0.20473836      -0.11820575       0.00000000 </v>
     <v>      -0.00000000       0.23641149       0.00000000 </v>
     <v>       0.00000000       0.00000000       0.04523368 </v>
    </varray>
   </crystal>
   <varray name="positions" >
    <v>       0.30286415       0.49410690       0.00209390 </v>
    <v>       0.63619748       0.82744023       0.00209390 </v>
    <v>       0.96953081       0.16077357       0.00209390 </v>
    <v>       0.63619748       0.49410690       0.10624323 </v>
    <v>       0.96953081       0.82744023       0.10624323 </v>
    <v>       0.30286415       0.16077357       0.10624323 </v>
    <v>       0.30279740       0.49424967       0.30576003 </v>
    <v>       0.63682062       0.82694086       0.30751577 </v>
    <v>       0.96937190       0.16066749       0.30591158 </v>
    <v>       0.96942145       0.49433235       0.20498710 </v>
    <v>       0.30280924       0.82754568       0.20495186 </v>
    <v>       0.63619783       0.16066076       0.20491616 </v>
    <v>       0.76818430       0.99126945       0.43508961 </v>
    <v>       0.63912644       0.81414257       0.40873100 </v>
    <v>       0.99202032       0.83038756       0.44138514 </v>
   </varray>
  </structure>
  <varray name="forces" >
   <v>      -0.00335116      -0.00553849      -0.08078284 </v>
   <v>      -0.00738468       0.00999451      -0.15806467 </v>
   <v>       0.00211854      -0.00356283      -0.10012437 </v>
   <v>       0.03796369       0.06204892       0.12394789 </v>
   <v>      -0.08235890      -0.01672719       0.12292241 </v>
   <v>       0.02234691      -0.05634342       0.14563044 </v>
   <v>       0.00729340       0.02161576      -0.29181403 </v>
   <v>       0.10013787      -0.08292026       1.34135061 </v>
   <v>      -0.03797351      -0.02292628      -0.16245873 </v>
   <v>      -0.03997446       0.09455473       0.13045550 </v>
   <v>       0.07099193       0.02555866       0.09940649 </v>
   <v>      -0.03951441      -0.07180193       0.05214890 </v>
   <v>      -0.09952914      -0.08335354      -0.16792159 </v>
   <v>       0.10707003       0.11273170      -1.02910447 </v>
   <v>      -0.03783613       0.01666967      -0.02559155 </v>
  </varray>
  <varray name="stress" >
   <v>     -42.43314310      -0.27042067       0.27940953 </v>
   <v>      -0.27042068     -41.28867078       0.09480703 </v>
   <v>       0.27940952       0.09480703     -12.23701477 </v>
  </varray>
  <energy>
   <i name="e_fr_energy">    -91.83301827 </i>
   <i name="e_wo_entrp">    -91.83380603 </i>
   <i name="e_0_energy">      0.00315101 </i>
  </energy>
  <time name="totalsc">  177.96  178.07</time>
 </calculation>
 <calculation>
  <scstep>
   <time name="dav">    7.17    7.18</time>
   <time name="total">    7.74    7.75</time>
   <dipole>
    <v name="dipole">      0.00000000       0.00000000       0.02677583 </v>
    <i name="Tr[quadrupol]">   -528.61697620 </i>
    <i name="Echarged">      0.00000000 </i>
    <i name="Edipol_quadrupol">      0.00000000 </i>
    <i name="Eion">      0.00000000 </i>
   </dipole>
   <energy>
    <i name="alphaZ">    495.78823755 </i>
    <i name="ewald">  29100.18986381 </i>
    <i name="hartreedc"> -38690.86775865 </i>
    <i name="XCdc">     30.07151551 </i>
    <i name="pawpsdc">   7379.03002778 </i>
    <i name="pawaedc">  -7035.66668097 </i>
    <i name="eentropy">     -0.00133209 </i>
    <i name="bandstr">   -488.92888057 </i>
    <i name="atom">   9118.66506496 </i>
    <i name="e_fr_energy">    -91.71994266 </i>
    <i name="e_wo_entrp">    -91.71861058 </i>
    <i name="e_0_energy">    -91.71960964 </i>
   </energy>
  </scstep>
  <scstep>
   <time name="dav">    9.50    9.50</time>
   <time name="total">   10.01   10.01</time>
   <dipole>
    <v name="dipole">      0.00000000       0.00000000      -0.03937172 </v>
    <i name="Tr[quadrupol]">   -528.70547867 </i>
    <i name="Echarged">      0.00000000 </i>
    <i name="Edipol_quadrupol">      0.00000000 </i>
    <i name="Eion">      0.00000000 </i>
   </dipole>
   <energy>
    <i name="e_fr_energy">    -92.22261238 </i>
    <i name="e_wo_entrp">    -92.23088583 </i>
    <i name="e_0_energy">    -92.22468074 </i>
   </energy>
  </scstep>
  <scstep>
   <time name="dav">   10.39   10.39</time>
   <time name="total">   10.89   10.90</time>
   <dipole>
    <v name="dipole">      0.00000000       0.00000000       0.05837729 </v>
    <i name="Tr[quadrupol]">   -528.88398419 </i>
    <i name="Echarged">      0.00000000 </i>
    <i name="Edipol_quadrupol">      0.00000000 </i>
    <i name="Eion">      0.00000000 </i>
   </dipole>
   <energy>
    <i name="e_fr_energy">    -92.14016325 </i>
    <i name="e_wo_entrp">    -92.12813107 </i>
    <i name="e_0_energy">    -92.13715521 </i>
   </energy>
  </scstep>
  <scstep>
   <time name="dav">   11.04   11.05</time>
   <time name="total">   11.55   11.56</time>
   <dipole>
    <v name="dipole">      0.00000000       0.00000000       0.01871432 </v>
    <i name="Tr[quadrupol]">   -528.64443731 </i>
    <i name="Echarged">      0.00000000 </i>
    <i name="Edipol_quadrupol">      0.00000000 </i>
    <i name="Eion">      0.00000000 </i>
   </dipole>
   <energy>
    <i name="e_fr_energy">    -91.97143106 </i>
    <i name="e_wo_entrp">    -91.97251318 </i>
    <i name="e_0_energy">    -91.97170159 </i>
   </energy>
  </scstep>
  <scstep>
   <time name="dav">   10.12   10.13</time>
   <time name="total">   10.63   10.63</time>
   <dipole>
    <v name="dipole">      0.00000000       0.00000000       0.00661291 </v>
    <i name="Tr[quadrupol]">   -528.79080044 </i>
    <i name="Echarged">      0.00000000 </i>
    <i name="Edipol_quadrupol">      0.00000000 </i>
    <i name="Eion">      0.00000000 </i>
   </dipole>
   <energy>
    <i name="e_fr_energy">    -91.96185692 </i>
    <i name="e_wo_entrp">    -91.96173526 </i>
    <i name="e_0_energy">    -91.96182651 </i>
   </energy>
  </scstep>
  <scstep>
   <time name="dav">    9.67    9.68</time>
   <time name="total">   10.18   10.19</time>
   <dipole>
    <v name="dipole">      0.00000000       0.00000000       0.00458896 </v>
    <i name="Tr[quadrupol]">   -528.75672812 </i>
    <i name="Echarged">      0.00000000 </i>
    <i name="Edipol_quadrupol">      0.00000000 </i>
    <i name="Eion">      0.00000000 </i>
   </dipole>
   <energy>
    <i name="e_fr_energy">    -91.95694938 </i>
    <i name="e_wo_entrp">    -91.95837751 </i>
    <i name="e_0_energy">    -91.95730641 </i>
   </energy>
  </scstep>
  <scstep>
   <time name="dav">    9.90    9.98</time>
   <time name="total">   10.41   10.49</time>
   <dipole>
    <v name="dipole">      0.00000000       0.00000000       0.00924590 </v>
    <i name="Tr[quadrupol]">   -528.80352265 </i>
    <i name="Echarged">      0.00000000 </i>
    <i name="Edipol_quadrupol">      0.00000000 </i>
    <i name="Eion">      0.00000000 </i>
   </dipole>
   <energy>
    <i name="e_fr_energy">    -91.95309908 </i>
    <i name="e_wo_entrp">    -91.95207369 </i>
    <i name="e_0_energy">    -91.95284273 </i>
   </energy>
  </scstep>
  <scstep>
   <time name="dav">    9.50    9.50</time>
   <time name="total">   10.01   10.01</time>
   <dipole>
    <v name="dipole">      0.00000000       0.00000000       0.00540365 </v>
    <i name="Tr[quadrupol]">   -528.80387443 </i>
    <i name="Echarged">      0.00000000 </i>
    <i name="Edipol_quadrupol">      0.00000000 </i>
    <i name="Eion">      0.00000000 </i>
   </dipole>
   <energy>
    <i name="e_fr_energy">    -91.95223199 </i>
    <i name="e_wo_entrp">    -91.95229879 </i>
    <i name="e_0_energy">    -91.95224869 </i>
   </energy>
  </scstep>
  <scstep>
   <time name="dav">    9.62    9.63</time>
   <time name="total">   10.13   10.13</time>
   <dipole>
    <v name="dipole">      0.00000000       0.00000000       0.00560969 </v>
    <i name="Tr[quadrupol]">   -528.81237954 </i>
    <i name="Echarged">      0.00000000 </i>
    <i name="Edipol_quadrupol">      0.00000000 </i>
    <i name="Eion">      0.00000000 </i>
   </dipole>
   <energy>
    <i name="e_fr_energy">    -91.95163075 </i>
    <i name="e_wo_entrp">    -91.95152593 </i>
    <i name="e_0_energy">    -91.95160454 </i>
   </energy>
  </scstep>
  <scstep>
   <time name="dav">    9.76    9.85</time>
   <time name="total">   10.27   10.35</time>
   <dipole>
    <v name="dipole">      0.00000000       0.00000000       0.00628986 </v>
    <i name="Tr[quadrupol]">   -528.81034630 </i>
    <i name="Echarged">      0.00000000 </i>
    <i name="Edipol_quadrupol">      0.00000000 </i>
    <i name="Eion">      0.00000000 </i>
   </dipole>
   <energy>
    <i name="e_fr_energy">    -91.95153626 </i>
    <i name="e_wo_entrp">    -91.95127996 </i>
    <i name="e_0_energy">    -91.95147219 </i>
   </energy>
  </scstep>
  <scstep>
   <time name="dav">    9.49    9.49</time>
   <time name="total">    9.99   10.00</time>
   <dipole>
    <v name="dipole">      0.00000000       0.00000000       0.00519218 </v>
    <i name="Tr[quadrupol]">   -528.80862310 </i>
    <i name="Echarged">      0.00000000 </i>
    <i name="Edipol_quadrupol">      0.00000000 </i>
    <i name="Eion">      0.00000000 </i>
   </dipole>
   <energy>
    <i name="e_fr_energy">    -91.95149317 </i>
    <i name="e_wo_entrp">    -91.95148846 </i>
    <i name="e_0_energy">    -91.95149199 </i>
   </energy>
  </scstep>
  <scstep>
   <time name="dav">    9.78    9.78</time>
   <time name="total">   10.28   10.28</time>
   <dipole>
    <v name="dipole">      0.00000000       0.00000000       0.00480830 </v>
    <i name="Tr[quadrupol]">   -528.81088185 </i>
    <i name="Echarged">      0.00000000 </i>
    <i name="Edipol_quadrupol">      0.00000000 </i>
    <i name="Eion">      0.00000000 </i>
   </dipole>
   <energy>
    <i name="e_fr_energy">    -91.95146752 </i>
    <i name="e_wo_entrp">    -91.95147309 </i>
    <i name="e_0_energy">    -91.95146892 </i>
   </energy>
  </scstep>
  <scstep>
   <time name="dav">    9.28    9.28</time>
[...]
       <r>   -5.4860    1.0000 </r>
       <r>   -5.2940    1.0000 </r>
       <r>   -5.2334    1.0000 </r>
       <r>   -5.1682    1.0000 </r>
       <r>   -4.9326    1.0000 </r>
       <r>   -4.8517    1.0000 </r>
       <r>   -4.6448    1.0000 </r>
       <r>   -4.5769    1.0000 </r>
       <r>   -4.5416    1.0000 </r>
       <r>   -4.2337    1.0000 </r>
       <r>   -4.1894    1.0000 </r>
       <r>   -4.0322    1.0000 </r>
       <r>   -3.9742    1.0000 </r>
       <r>   -3.8017    1.0000 </r>
       <r>   -3.5396    1.0000 </r>
       <r>   -3.4715    1.0000 </r>
       <r>   -3.3670    1.0000 </r>
       <r>   -3.2936    1.0000 </r>
       <r>   -3.1982    1.0000 </r>
       <r>   -3.1263    1.0000 </r>
       <r>   -3.0640    1.0000 </r>
       <r>   -2.9939    1.0000 </r>
       <r>   -2.9020    1.0000 </r>
       <r>   -2.8602    1.0000 </r>
       <r>   -2.8393    1.0000 </r>
       <r>   -2.6617    1.0000 </r>
       <r>   -2.4243    1.0000 </r>
       <r>   -2.3736    1.0000 </r>
       <r>   -2.3110    1.0000 </r>
       <r>   -2.2119    1.0000 </r>
       <r>   -2.0497    1.0000 </r>
       <r>   -1.8503    1.0000 </r>
       <r>   -1.7843    1.0000 </r>
       <r>   -1.6400    1.0000 </r>
       <r>   -1.5510    1.0000 </r>
       <r>   -1.4137    1.0000 </r>
       <r>   -1.3233    1.0000 </r>
       <r>   -1.2035    1.0000 </r>
       <r>   -1.1015    1.0000 </r>
       <r>   -0.8311    1.0000 </r>
       <r>   -0.7671    1.0000 </r>
       <r>   -0.6762    1.0000 </r>
       <r>   -0.6462    1.0000 </r>
       <r>   -0.5091    1.0000 </r>
       <r>   -0.3276    1.0000 </r>
       <r>   -0.2581    0.9998 </r>
       <r>   -0.2197    0.9996 </r>
       <r>   -0.1947    0.9993 </r>
       <r>   -0.1430    0.9983 </r>
       <r>    0.0505    1.0050 </r>
       <r>    0.1009    1.0245 </r>
       <r>    0.1903    1.0500 </r>
       <r>    0.2114    1.0393 </r>
       <r>    0.3639    0.5259 </r>
       <r>    0.4742    0.0468 </r>
       <r>    0.5067   -0.0180 </r>
       <r>    0.5894   -0.0458 </r>
       <r>    0.7125    0.0006 </r>
       <r>    0.7445    0.0042 </r>
       <r>    1.0679    0.0000 </r>
       <r>    1.4319    0.0000 </r>
       <r>    1.6161    0.0000 </r>
       <r>    1.8662    0.0000 </r>
       <r>    2.5556    0.0000 </r>
       <r>    3.0812    0.0000 </r>
       <r>    3.7409    0.0000 </r>
      </set>
     </set>
    </set>
   </array>
  </eigenvalues>
  <separator name="orbital magnetization" >
   <v name="MAGDIPOLOUT">      0.00000000      0.00000000      0.00000000</v>
  </separator>
  <dos>
   <i name="efermi">      0.36883533 </i>
   <total>
    <array>
     <dimension dim="1">gridpoints</dimension>
     <dimension dim="2">spin</dimension>
     <field>energy</field>
     <field>total</field>
     <field>integrated</field>
     <set>
      <set comment="spin 1">
       <r>   -24.5659     0.0000     0.0000 </r>
       <r>   -24.4591     0.0000     0.0000 </r>
       <r>   -24.3523     0.0000     0.0000 </r>
       <r>   -24.2456     0.0000     0.0000 </r>
       <r>   -24.1388     0.0000     0.0000 </r>
       <r>   -24.0320     0.0000     0.0000 </r>
       <r>   -23.9252     0.0000     0.0000 </r>
       <r>   -23.8184     0.0000     0.0000 </r>
       <r>   -23.7116     0.0000     0.0000 </r>
       <r>   -23.6048     0.0000     0.0000 </r>
       <r>   -23.4980     0.0000     0.0000 </r>
       <r>   -23.3912     0.0000     0.0000 </r>
       <r>   -23.2844     0.0002     0.0000 </r>
       <r>   -23.1776     0.0032     0.0004 </r>
       <r>   -23.0708     0.0276     0.0033 </r>
       <r>   -22.9640     0.0610     0.0098 </r>
       <r>   -22.8572    -0.2912    -0.0213 </r>
       <r>   -22.7504    -0.7632    -0.1028 </r>
       <r>   -22.6436     2.8423     0.2008 </r>
       <r>   -22.5369     9.3937     1.2040 </r>
       <r>   -22.4301     7.4346     1.9979 </r>
       <r>   -22.3233     0.7841     2.0817 </r>
       <r>   -22.2165    -0.7628     2.0002 </r>
       <r>   -22.1097    -0.0766     1.9920 </r>
       <r>   -22.0029     0.0594     1.9984 </r>
       <r>   -21.8961     0.0140     1.9999 </r>
       <r>   -21.7893     0.0012     2.0000 </r>
       <r>   -21.6825     0.0000     2.0000 </r>
       <r>   -21.5757     0.0000     2.0000 </r>
       <r>   -21.4689     0.0000     2.0000 </r>
       <r>   -21.3621     0.0000     2.0000 </r>
       <r>   -21.2553     0.0000     2.0000 </r>
       <r>   -21.1485     0.0000     2.0000 </r>
       <r>   -21.0417     0.0000     2.0000 </r>
       <r>   -20.9349     0.0000     2.0000 </r>
       <r>   -20.8281     0.0000     2.0000 </r>
       <r>   -20.7214     0.0000     2.0000 </r>
       <r>   -20.6146     0.0000     2.0000 </r>
       <r>   -20.5078     0.0000     2.0000 </r>
       <r>   -20.4010     0.0000     2.0000 </r>
       <r>   -20.2942     0.0000     2.0000 </r>
       <r>   -20.1874     0.0000     2.0000 </r>
       <r>   -20.0806     0.0000     2.0000 </r>
       <r>   -19.9738     0.0000     2.0000 </r>
       <r>   -19.8670     0.0000     2.0000 </r>
       <r>   -19.7602     0.0000     2.0000 </r>
       <r>   -19.6534     0.0000     2.0000 </r>
       <r>   -19.5466     0.0000     2.0000 </r>
       <r>   -19.4398     0.0000     2.0000 </r>
       <r>   -19.3330     0.0000     2.0000 </r>
       <r>   -19.2262     0.0000     2.0000 </r>
       <r>   -19.1194     0.0000     2.0000 </r>
       <r>   -19.0126     0.0000     2.0000 </r>
       <r>   -18.9059     0.0000     2.0000 </r>
       <r>   -18.7991     0.0000     2.0000 </r>
       <r>   -18.6923     0.0000     2.0000 </r>
       <r>   -18.5855     0.0000     2.0000 </r>
       <r>   -18.4787     0.0000     2.0000 </r>
       <r>   -18.3719     0.0000     2.0000 </r>
       <r>   -18.2651     0.0000     2.0000 </r>
       <r>   -18.1583     0.0000     2.0000 </r>
       <r>   -18.0515     0.0000     2.0000 </r>
       <r>   -17.9447     0.0000     2.0000 </r>
       <r>   -17.8379     0.0000     2.0000 </r>
       <r>   -17.7311     0.0000     2.0000 </r>
       <r>   -17.6243     0.0000     2.0000 </r>
       <r>   -17.5175     0.0000     2.0000 </r>
       <r>   -17.4107     0.0011     2.0001 </r>
       <r>   -17.3039     0.0127     2.0015 </r>
       <r>   -17.1971     0.0547     2.0073 </r>
       <r>   -17.0904    -0.0593     2.0010 </r>
       <r>   -16.9836    -0.6941     1.9269 </r>
       <r>   -16.8768     0.5801     1.9888 </r>
       <r>   -16.7700     6.8371     2.7190 </r>
       <r>   -16.6632     9.4500     3.7282 </r>
       <r>   -16.5564     3.4307     4.0946 </r>
       <r>   -16.4496    -0.6142     4.0290 </r>
       <r>   -16.3428    -0.3565     3.9909 </r>
       <r>   -16.2360     0.0489     3.9961 </r>
       <r>   -16.1292     0.0318     3.9995 </r>
       <r>   -16.0224     0.0043     4.0000 </r>
       <r>   -15.9156     0.0003     4.0000 </r>
       <r>   -15.8088     0.0000     4.0000 </r>
       <r>   -15.7020     0.0000     4.0000 </r>
       <r>   -15.5952     0.0000     4.0000 </r>
       <r>   -15.4884     0.0000     4.0000 </r>
       <r>   -15.3816     0.0000     4.0000 </r>
       <r>   -15.2749     0.0000     4.0000 </r>
       <r>   -15.1681     0.0000     4.0000 </r>
       <r>   -15.0613     0.0000     4.0000 </r>
       <r>   -14.9545     0.0000     4.0000 </r>
       <r>   -14.8477     0.0000     4.0000 </r>
       <r>   -14.7409     0.0000     4.0000 </r>
       <r>   -14.6341     0.0000     4.0000 </r>
       <r>   -14.5273     0.0000     4.0000 </r>
       <r>   -14.4205     0.0000     4.0000 </r>
       <r>   -14.3137     0.0000     4.0000 </r>
       <r>   -14.2069     0.0000     4.0000 </r>
       <r>   -14.1001     0.0000     4.0000 </r>
       <r>   -13.9933     0.0000     4.0000 </r>
       <r>   -13.8865     0.0000     4.0000 </r>
       <r>   -13.7797     0.0000     4.0000 </r>
       <r>   -13.6729     0.0000     4.0000 </r>
       <r>   -13.5661     0.0000     4.0000 </r>
       <r>   -13.4594     0.0000     4.0000 </r>
       <r>   -13.3526     0.0000     4.0000 </r>
       <r>   -13.2458     0.0000     4.0000 </r>
       <r>   -13.1390     0.0000     4.0000 </r>
       <r>   -13.0322     0.0000     4.0000 </r>
       <r>   -12.9254     0.0000     4.0000 </r>
       <r>   -12.8186     0.0000     4.0000 </r>
       <r>   -12.7118     0.0000     4.0000 </r>
       <r>   -12.6050     0.0000     4.0000 </r>
       <r>   -12.4982     0.0000     4.0000 </r>
       <r>   -12.3914     0.0000     4.0000 </r>
       <r>   -12.2846     0.0000     4.0000 </r>
       <r>   -12.1778     0.0000     4.0000 </r>
       <r>   -12.0710     0.0000     4.0000 </r>
       <r>   -11.9642     0.0000     4.0000 </r>
       <r>   -11.8574     0.0000     4.0000 </r>
       <r>   -11.7506     0.0000     4.0000 </r>
       <r>   -11.6439     0.0000     4.0000 </r>
       <r>   -11.5371     0.0000     4.0000 </r>
       <r>   -11.4303     0.0000     4.0000 </r>
       <r>   -11.3235     0.0000     4.0000 </r>
       <r>   -11.2167     0.0000     4.0000 </r>
       <r>   -11.1099     0.0000     4.0000 </r>
       <r>   -11.0031     0.0000     4.0000 </r>
       <r>   -10.8963     0.0000     4.0000 </r>
       <r>   -10.7895     0.0000     4.0000 </r>
       <r>   -10.6827     0.0000     4.0000 </r>
       <r>   -10.5759     0.0000     4.0000 </r>
       <r>   -10.4691     0.0000     4.0000 </r>
       <r>   -10.3623     0.0000     4.0000 </r>
       <r>   -10.2555     0.0000     4.0000 </r>
       <r>   -10.1487     0.0000     4.0000 </r>
       <r>   -10.0419     0.0000     4.0000 </r>
       <r>    -9.9351     0.0000     4.0000 </r>
       <r>    -9.8284     0.0000     4.0000 </r>
       <r>    -9.7216     0.0005     4.0001 </r>
       <r>    -9.6148     0.0026     4.0003 </r>
       <r>    -9.5080    -0.0005     4.0003 </r>
       <r>    -9.4012    -0.0277     3.9973 </r>
       <r>    -9.2944     0.0083     3.9982 </r>
       <r>    -9.1876     0.2712     4.0272 </r>
       <r>    -9.0808     0.5196     4.0827 </r>
       <r>    -8.9740     0.6251     4.1494 </r>
       <r>    -8.8672     0.8007     4.2349 </r>
       <r>    -8.7604     0.7795     4.3182 </r>
       <r>    -8.6536     0.6435     4.3869 </r>
       <r>    -8.5468     0.5030     4.4406 </r>
       <r>    -8.4400     0.4748     4.4913 </r>
       <r>    -8.3332     0.8620     4.5834 </r>
       <r>    -8.2264     3.8510     4.9946 </r>
       <r>    -8.1196     8.6661     5.9201 </r>
       <r>    -8.0129     7.6044     6.7322 </r>
       <r>    -7.9061     2.2551     6.9731 </r>
       <r>    -7.7993     0.6391     7.0413 </r>
       <r>    -7.6925     1.6315     7.2156 </r>
       <r>    -7.5857     2.0018     7.4293 </r>
       <r>    -7.4789     1.9541     7.6380 </r>
       <r>    -7.3721     1.8161     7.8320 </r>
       <r>    -7.2653     2.2293     8.0700 </r>
       <r>    -7.1585     3.4283     8.4362 </r>
       <r>    -7.0517     4.5690     8.9241 </r>
       <r>    -6.9449     5.2702     9.4869 </r>
       <r>    -6.8381     4.5171     9.9693 </r>
       <r>    -6.7313     3.5395    10.3473 </r>
       <r>    -6.6245     4.3326    10.8100 </r>
       <r>    -6.5177     6.1321    11.4649 </r>
       <r>    -6.4109     7.7912    12.2970 </r>
       <r>    -6.3042     8.3511    13.1888 </r>
       <r>    -6.1974     9.3462    14.1869 </r>
       <r>    -6.0906    11.2262    15.3858 </r>
       <r>    -5.9838    11.6119    16.6259 </r>
       <r>    -5.8770    12.1568    17.9242 </r>
       <r>    -5.7702    15.0368    19.5300 </r>
       <r>    -5.6634    16.6190    21.3048 </r>
       <r>    -5.5566    16.2853    23.0440 </r>
       <r>    -5.4498    16.8650    24.8451 </r>
       <r>    -5.3430    16.5309    26.6105 </r>
       <r>    -5.2362    14.5015    28.1592 </r>
       <r>    -5.1294    15.1379    29.7758 </r>
       <r>    -5.0226    16.7559    31.5652 </r>
       <r>    -4.9158    14.9761    33.1646 </r>
       <r>    -4.8090    11.9743    34.4434 </r>
       <r>    -4.7022    10.7817    35.5948 </r>
       <r>    -4.5954    12.2061    36.8983 </r>
       <r>    -4.4887    14.9768    38.4978 </r>
       <r>    -4.3819    16.0281    40.2095 </r>
       <r>    -4.2751    15.2760    41.8409 </r>
       <r>    -4.1683    15.3617    43.4814 </r>
       <r>    -4.0615    16.3224    45.2245 </r>
       <r>    -3.9547    15.4897    46.8787 </r>
       <r>    -3.8479    12.8325    48.2492 </r>
       <r>    -3.7411    12.9086    49.6277 </r>
       <r>    -3.6343    16.1809    51.3557 </r>
       <r>    -3.5275    18.6710    53.3497 </r>
       <r>    -3.4207    18.9189    55.3701 </r>
       <r>    -3.3139    20.2495    57.5327 </r>
       <r>    -3.2071    25.3760    60.2427 </r>
       <r>    -3.1003    30.1117    63.4584 </r>
       <r>    -2.9935    29.6532    66.6252 </r>
       <r>    -2.8867    25.9986    69.4017 </r>
       <r>    -2.7799    21.9993    71.7511 </r>
       <r>    -2.6732    19.3199    73.8143 </r>
       <r>    -2.5664    19.9503    75.9449 </r>
       <r>    -2.4596    21.9007    78.2838 </r>
       <r>    -2.3528    23.3467    80.7771 </r>
       <r>    -2.2460    23.1351    83.2477 </r>
       <r>    -2.1392    19.2556    85.3041 </r>
       <r>    -2.0324    15.3766    86.9463 </r>
       <r>    -1.9256    16.0055    88.6556 </r>
       <r>    -1.8188    17.1564    90.4877 </r>
       <r>    -1.7120    16.7331    92.2747 </r>
       <r>    -1.6052    17.9534    94.1921 </r>
       <r>    -1.4984    20.0260    96.3307 </r>
       <r>    -1.3916    19.1873    98.3798 </r>
       <r>    -1.2848    16.7640   100.1701 </r>
       <r>    -1.1780    16.7969   101.9639 </r>
       <r>    -1.0712    18.6910   103.9600 </r>
       <r>    -0.9644    19.9468   106.0902 </r>
       <r>    -0.8577    21.1178   108.3455 </r>
       <r>    -0.7509    21.9989   110.6948 </r>
       <r>    -0.6441    20.1290   112.8445 </r>
       <r>    -0.5373    17.0600   114.6664 </r>
       <r>    -0.4305    15.7933   116.3530 </r>
       <r>    -0.3237    16.5521   118.1207 </r>
       <r>    -0.2169    18.7416   120.1222 </r>
       <r>    -0.1101    17.7841   122.0214 </r>
       <r>    -0.0033    14.6151   123.5822 </r>
       <r>     0.1035    14.5020   125.1309 </r>
       <r>     0.2103    16.1701   126.8578 </r>
       <r>     0.3171    18.8375   128.8695 </r>
       <r>     0.4239    22.5779   131.2807 </r>
       <r>     0.5307    22.8178   133.7175 </r>
       <r>     0.6375    20.2279   135.8778 </r>
       <r>     0.7443    17.9356   137.7932 </r>
       <r>     0.8511    13.6200   139.2477 </r>
       <r>     0.9578     8.7142   140.1783 </r>
       <r>     1.0646     7.3508   140.9634 </r>
       <r>     1.1714     6.2525   141.6311 </r>
       <r>     1.2782     4.6295   142.1255 </r>
       <r>     1.3850     5.1479   142.6753 </r>
       <r>     1.4918     5.3978   143.2517 </r>
       <r>     1.5986     4.2139   143.7017 </r>
       <r>     1.7054     3.5317   144.0789 </r>
       <r>     1.8122     4.0305   144.5093 </r>
       <r>     1.9190     4.2322   144.9613 </r>
       <r>     2.0258     3.2878   145.3124 </r>
       <r>     2.1326     3.2931   145.6641 </r>
       <r>     2.2394     4.3379   146.1274 </r>
       <r>     2.3462     4.7202   146.6315 </r>
       <r>     2.4530     4.9079   147.1556 </r>
       <r>     2.5598     4.4723   147.6332 </r>
       <r>     2.6666     3.9291   148.0528 </r>
       <r>     2.7733     4.3792   148.5205 </r>
       <r>     2.8801     4.8627   149.0398 </r>
       <r>     2.9869     5.3273   149.6087 </r>
       <r>     3.0937     6.0535   150.2552 </r>
       <r>     3.2005     5.9448   150.8901 </r>
       <r>     3.3073     4.5924   151.3805 </r>
       <r>     3.4141     4.6848   151.8808 </r>
       <r>     3.5209     6.0713   152.5292 </r>
       <r>     3.6277     5.9773   153.1675 </r>
       <r>     3.7345     5.2622   153.7295 </r>
       <r>     3.8413     3.7425   154.1292 </r>
       <r>     3.9481     1.4221   154.2810 </r>
       <r>     4.0549     1.4281   154.4336 </r>
       <r>     4.1617     2.5312   154.7039 </r>
       <r>     4.2685     2.1883   154.9376 </r>
       <r>     4.3753     1.1475   155.0601 </r>
       <r>     4.4821     0.5033   155.1139 </r>
       <r>     4.5888     0.7448   155.1934 </r>
       <r>     4.6956     1.2784   155.3299 </r>
       <r>     4.8024     1.2284   155.4611 </r>
       <r>     4.9092     1.2404   155.5936 </r>
       <r>     5.0160     1.3908   155.7421 </r>
       <r>     5.1228     1.0926   155.8588 </r>
       <r>     5.2296     0.5509   155.9176 </r>
       <r>     5.3364     0.2172   155.9408 </r>
       <r>     5.4432     0.2437   155.9669 </r>
       <r>     5.5500     0.2620   155.9949 </r>
       <r>     5.6568     0.0741   156.0028 </r>
       <r>     5.7636    -0.0218   156.0004 </r>
       <r>     5.8704    -0.0070   155.9997 </r>
       <r>     5.9772     0.0020   155.9999 </r>
       <r>     6.0840     0.0008   156.0000 </r>
       <r>     6.1908     0.0001   156.0000 </r>
       <r>     6.2976     0.0000   156.0000 </r>
       <r>     6.4043     0.0000   156.0000 </r>
       <r>     6.5111     0.0000   156.0000 </r>
       <r>     6.6179     0.0000   156.0000 </r>
       <r>     6.7247     0.0000   156.0000 </r>
       <r>     6.8315     0.0000   156.0000 </r>
       <r>     6.9383     0.0000   156.0000 </r>
       <r>     7.0451     0.0000   156.0000 </r>
       <r>     7.1519     0.0000   156.0000 </r>
       <r>     7.2587     0.0000   156.0000 </r>
       <r>     7.3655     0.0000   156.0000 </r>
       <r>     7.4723     0.0000   156.0000 </r>
      </set>
     </set>
    </array>
   </total>
  </dos>
 </calculation>
 <structure name="finalpos" >
  <crystal>
   <varray name="basis" >
    <v>       4.88428255       0.00000000       0.00000000 </v>
    <v>       2.44214127       4.22991277       0.00000000 </v>
    <v>       0.00000000       0.00000000      22.10741862 </v>
   </varray>
   <i name="volume">    456.74123834 </i>
   <varray name="rec_basis" >
    <v>       0.20473836      -0.11820575       0.00000000 </v>
    <v>      -0.00000000       0.23641149       0.00000000 </v>
    <v>       0.00000000       0.00000000       0.04523368 </v>
   </varray>
  </crystal>
  <varray name="positions" >
   <v>       0.30286415       0.49410690       0.00209390 </v>
   <v>       0.63619748       0.82744023       0.00209390 </v>
   <v>       0.96953081       0.16077357       0.00209390 </v>
   <v>       0.63619748       0.49410690       0.10624323 </v>
   <v>       0.96953081       0.82744023       0.10624323 </v>
   <v>       0.30286415       0.16077357       0.10624323 </v>
   <v>       0.30747203       0.49470618       0.30095947 </v>
   <v>       0.64493369       0.82592665       0.30890617 </v>
   <v>       0.97204491       0.16204751       0.30735692 </v>
   <v>       0.96206023       0.49191141       0.20603332 </v>
   <v>       0.31099798       0.83565588       0.20577565 </v>
   <v>       0.64302585       0.15489761       0.20358399 </v>
   <v>       0.87184946       0.05935107       0.40583022 </v>
   <v>       0.69954313       0.87926685       0.39893166 </v>
   <v>       0.08024209       0.88937336       0.41950385 </v>
  </varray>
  <varray name="selective"  type="logical" >
   <v type="logical" >  F  F  F </v>
   <v type="logical" >  F  F  F </v>
   <v type="logical" >  F  F  F </v>
   <v type="logical" >  F  F  F </v>
   <v type="logical" >  F  F  F </v>
   <v type="logical" >  F  F  F </v>
   <v type="logical" >  T  T  T </v>
   <v type="logical" >  T  T  T </v>
   <v type="logical" >  T  T  T </v>
   <v type="logical" >  T  T  T </v>
   <v type="logical" >  T  T  T </v>
   <v type="logical" >  T  T  T </v>
   <v type="logical" >  T  T  T </v>
   <v type="logical" >  T  T  T </v>
   <v type="logical" >  T  T  T </v>
  </varray>
  <nose>
   <v>      -3.00000000       0.00000000       0.00010000       0.00010000 </v>
  </nose>
 </structure>
</modeling>
