<?xml version="1.0" encoding="ISO-8859-1"?>
<modeling>
 <generator>
  <i name="program" type="string">vasp </i>
  <i name="version" type="string">5.4.4.18Apr17-6-g9f103f2a35  </i>
  <i name="subversion" type="string">(build Apr 23 2019 15:17:44) complex            parallel </i>
  <i name="platform" type="string">MareNostrum4 </i>
  <i name="date" type="string">2019 05 10 </i>
  <i name="time" type="string">04:00:12 </i>
 </generator>
 <incar>
  <i type="int" name="ISTART">     0</i>
  <i type="string" name="PREC">normal</i>
  <i type="string" name="ALGO"> NORMAL</i>
  <i type="int" name="ICHARG">     2</i>
  <i type="int" name="INIWAV">     1</i>
  <i type="int" name="NELMIN">     8</i>
  <i type="int" name="IBRION">     2</i>
  <i name="EDIFF">      0.00000100</i>
  <i name="EDIFFG">     -0.01000000</i>
  <i type="int" name="NSW">  1500</i>
  <i name="ENCUT">    450.00000000</i>
  <i name="POTIM">      0.20000000</i>
  <i type="int" name="ISMEAR">     2</i>
  <i name="SIGMA">      0.20000000</i>
  <i type="logical" name="LWAVE"> F  </i>
  <i type="logical" name="LCHARG"> T  </i>
  <v type="int" name="KPOINT_BSE">    -1     0     0     0</v>
  <i type="string" name="GGA"> 91</i>
  <i type="logical" name="LDIPOL"> T  </i>
  <i type="int" name="IDIPOL">     3</i>
 </incar>
 <structure name="primitive_cell" >
  <crystal>
   <varray name="basis" >
    <v>       4.88428255       0.00000000       0.00000000 </v>
    <v>       2.44214127       4.22991277       0.00000000 </v>
    <v>       0.00000000       0.00000000      22.10741862 </v>
   </varray>
   <i name="volume">    456.74123834 </i>
   <varray name="rec_basis" >
    <v>       0.20473836      -0.11820575       0.00000000 </v>
    <v>      -0.00000000       0.23641149       0.00000000 </v>
    <v>       0.00000000       0.00000000       0.04523368 </v>
   </varray>
  </crystal>
  <varray name="positions" >
   <v>       0.30286415       0.49410690       0.00209390 </v>
   <v>      -0.36380252       0.49410690       0.10624323 </v>
   <v>      -0.03046919      -0.17255977       0.10624323 </v>
   <v>      -0.36380252      -0.17255977       0.00209390 </v>
   <v>      -0.03046919       0.16077357       0.00209390 </v>
   <v>       0.30286415       0.16077357       0.10624323 </v>
   <v>      -0.03046919       0.49410690       0.20100327 </v>
   <v>       0.30286415      -0.17255977       0.20100327 </v>
   <v>      -0.36380252       0.16077357       0.20100327 </v>
   <v>       0.30286415       0.49410690       0.29515706 </v>
   <v>      -0.36380252      -0.17255977       0.29515706 </v>
   <v>      -0.03046919       0.16077357       0.29515706 </v>
   <v>      -0.36147278      -0.18720688       0.40965579 </v>
   <v>      -0.00774698      -0.16987484       0.44138925 </v>
   <v>      -0.23128870      -0.00740884       0.43532491 </v>
  </varray>
 </structure>
 <varray name="primitive_index" >
  <v type="int" >        1 </v>
  <v type="int" >        4 </v>
  <v type="int" >        5 </v>
  <v type="int" >        2 </v>
  <v type="int" >        3 </v>
  <v type="int" >        6 </v>
  <v type="int" >       10 </v>
  <v type="int" >       11 </v>
  <v type="int" >       12 </v>
  <v type="int" >        7 </v>
  <v type="int" >        8 </v>
  <v type="int" >        9 </v>
  <v type="int" >       14 </v>
  <v type="int" >       15 </v>
  <v type="int" >       13 </v>
 </varray>
 <kpoints>
  <generation param="Monkhorst-Pack">
   <v type="int" name="divisions">       8        8        1 </v>
   <v name="usershift">      0.00000000       0.00000000       0.00000000 </v>
   <v name="genvec1">      0.12500000      -0.00000000       0.00000000 </v>
   <v name="genvec2">      0.00000000       0.12500000       0.00000000 </v>
   <v name="genvec3">      0.00000000       0.00000000       1.00000000 </v>
   <v name="shift">      0.50000000       0.50000000       0.00000000 </v>
  </generation>
  <varray name="kpointlist" >
   <v>       0.06250000       0.06250000       0.00000000 </v>
   <v>       0.00000000       0.06250000       0.00000000 </v>
   <v>      -0.06250000       0.00000000       0.00000000 </v>
   <v>       0.18750000       0.06250000       0.00000000 </v>
   <v>       0.12500000       0.18750000       0.00000000 </v>
   <v>      -0.06250000       0.12500000       0.00000000 </v>
   <v>       0.12500000      -0.06250000       0.00000000 </v>
   <v>      -0.06250000      -0.18750000       0.00000000 </v>
   <v>      -0.18750000      -0.12500000       0.00000000 </v>
   <v>       0.31250000       0.06250000       0.00000000 </v>
   <v>       0.25000000       0.31250000       0.00000000 </v>
   <v>      -0.06250000       0.25000000       0.00000000 </v>
   <v>       0.25000000      -0.06250000       0.00000000 </v>
   <v>      -0.06250000      -0.31250000       0.00000000 </v>
   <v>      -0.31250000      -0.25000000       0.00000000 </v>
   <v>       0.43750000       0.06250000       0.00000000 </v>
   <v>       0.37500000       0.43750000       0.00000000 </v>
   <v>      -0.06250000       0.37500000       0.00000000 </v>
   <v>       0.37500000      -0.06250000       0.00000000 </v>
   <v>      -0.06250000      -0.43750000       0.00000000 </v>
   <v>      -0.43750000      -0.37500000       0.00000000 </v>
   <v>      -0.43750000       0.06250000       0.00000000 </v>
   <v>       0.50000000      -0.43750000       0.00000000 </v>
   <v>      -0.06250000       0.50000000       0.00000000 </v>
   <v>       0.50000000      -0.06250000       0.00000000 </v>
   <v>      -0.06250000       0.43750000       0.00000000 </v>
   <v>       0.43750000       0.50000000       0.00000000 </v>
   <v>      -0.31250000       0.06250000       0.00000000 </v>
   <v>      -0.37500000      -0.31250000       0.00000000 </v>
   <v>      -0.06250000      -0.37500000       0.00000000 </v>
   <v>      -0.37500000      -0.06250000       0.00000000 </v>
   <v>      -0.06250000       0.31250000       0.00000000 </v>
   <v>       0.31250000       0.37500000       0.00000000 </v>
   <v>      -0.18750000       0.06250000       0.00000000 </v>
   <v>      -0.25000000      -0.18750000       0.00000000 </v>
   <v>      -0.06250000      -0.25000000       0.00000000 </v>
   <v>      -0.25000000      -0.06250000       0.00000000 </v>
   <v>      -0.06250000       0.18750000       0.00000000 </v>
   <v>       0.18750000       0.25000000       0.00000000 </v>
   <v>      -0.06250000       0.06250000       0.00000000 </v>
   <v>      -0.12500000      -0.06250000       0.00000000 </v>
   <v>      -0.06250000      -0.12500000       0.00000000 </v>
   <v>       0.18750000       0.18750000       0.00000000 </v>
   <v>      -0.00000000       0.18750000       0.00000000 </v>
   <v>      -0.18750000       0.00000000       0.00000000 </v>
   <v>       0.31250000       0.18750000       0.00000000 </v>
   <v>       0.12500000       0.31250000       0.00000000 </v>
   <v>      -0.18750000       0.12500000       0.00000000 </v>
   <v>       0.12500000      -0.18750000       0.00000000 </v>
   <v>      -0.18750000      -0.31250000       0.00000000 </v>
   <v>      -0.31250000      -0.12500000       0.00000000 </v>
   <v>       0.43750000       0.18750000       0.00000000 </v>
   <v>       0.25000000       0.43750000       0.00000000 </v>
   <v>      -0.18750000       0.25000000       0.00000000 </v>
   <v>       0.25000000      -0.18750000       0.00000000 </v>
   <v>      -0.18750000      -0.43750000       0.00000000 </v>
   <v>      -0.43750000      -0.25000000       0.00000000 </v>
   <v>      -0.43750000       0.18750000       0.00000000 </v>
   <v>       0.37500000      -0.43750000       0.00000000 </v>
   <v>      -0.18750000       0.37500000       0.00000000 </v>
   <v>       0.37500000      -0.18750000       0.00000000 </v>
   <v>      -0.18750000       0.43750000       0.00000000 </v>
   <v>       0.43750000      -0.37500000       0.00000000 </v>
   <v>      -0.31250000       0.18750000       0.00000000 </v>
   <v>       0.50000000      -0.31250000       0.00000000 </v>
   <v>      -0.18750000       0.50000000       0.00000000 </v>
   <v>       0.50000000      -0.18750000       0.00000000 </v>
   <v>      -0.18750000       0.31250000       0.00000000 </v>
   <v>       0.31250000       0.50000000       0.00000000 </v>
   <v>      -0.18750000       0.18750000       0.00000000 </v>
   <v>      -0.37500000      -0.18750000       0.00000000 </v>
   <v>      -0.18750000      -0.37500000       0.00000000 </v>
   <v>       0.31250000       0.31250000       0.00000000 </v>
   <v>      -0.00000000       0.31250000       0.00000000 </v>
   <v>      -0.31250000       0.00000000       0.00000000 </v>
   <v>       0.43750000       0.31250000       0.00000000 </v>
   <v>       0.12500000       0.43750000       0.00000000 </v>
   <v>      -0.31250000       0.12500000       0.00000000 </v>
   <v>       0.12500000      -0.31250000       0.00000000 </v>
   <v>      -0.31250000      -0.43750000       0.00000000 </v>
   <v>      -0.43750000      -0.12500000       0.00000000 </v>
   <v>      -0.43750000       0.31250000       0.00000000 </v>
   <v>       0.25000000      -0.43750000       0.00000000 </v>
   <v>      -0.31250000       0.25000000       0.00000000 </v>
   <v>       0.25000000      -0.31250000       0.00000000 </v>
   <v>      -0.31250000       0.43750000       0.00000000 </v>
   <v>       0.43750000      -0.25000000       0.00000000 </v>
   <v>      -0.31250000       0.31250000       0.00000000 </v>
   <v>       0.37500000      -0.31250000       0.00000000 </v>
   <v>      -0.31250000       0.37500000       0.00000000 </v>
   <v>       0.43750000       0.43750000       0.00000000 </v>
   <v>       0.00000000       0.43750000       0.00000000 </v>
   <v>      -0.43750000       0.00000000       0.00000000 </v>
   <v>      -0.43750000       0.43750000       0.00000000 </v>
   <v>       0.12500000      -0.43750000       0.00000000 </v>
   <v>      -0.43750000       0.12500000       0.00000000 </v>
  </varray>
  <varray name="weights" >
   <v>       0.01041667 </v>
   <v>       0.01041667 </v>
   <v>       0.01041667 </v>
   <v>       0.01041667 </v>
   <v>       0.01041667 </v>
   <v>       0.01041667 </v>
   <v>       0.01041667 </v>
   <v>       0.01041667 </v>
   <v>       0.01041667 </v>
   <v>       0.01041667 </v>
   <v>       0.01041667 </v>
   <v>       0.01041667 </v>
   <v>       0.01041667 </v>
   <v>       0.01041667 </v>
   <v>       0.01041667 </v>
   <v>       0.01041667 </v>
   <v>       0.01041667 </v>
   <v>       0.01041667 </v>
   <v>       0.01041667 </v>
   <v>       0.01041667 </v>
   <v>       0.01041667 </v>
   <v>       0.01041667 </v>
   <v>       0.01041667 </v>
   <v>       0.01041667 </v>
   <v>       0.01041667 </v>
   <v>       0.01041667 </v>
   <v>       0.01041667 </v>
   <v>       0.01041667 </v>
   <v>       0.01041667 </v>
   <v>       0.01041667 </v>
   <v>       0.01041667 </v>
   <v>       0.01041667 </v>
   <v>       0.01041667 </v>
   <v>       0.01041667 </v>
   <v>       0.01041667 </v>
   <v>       0.01041667 </v>
   <v>       0.01041667 </v>
   <v>       0.01041667 </v>
   <v>       0.01041667 </v>
   <v>       0.01041667 </v>
   <v>       0.01041667 </v>
   <v>       0.01041667 </v>
   <v>       0.01041667 </v>
   <v>       0.01041667 </v>
   <v>       0.01041667 </v>
   <v>       0.01041667 </v>
   <v>       0.01041667 </v>
   <v>       0.01041667 </v>
   <v>       0.01041667 </v>
   <v>       0.01041667 </v>
   <v>       0.01041667 </v>
   <v>       0.01041667 </v>
   <v>       0.01041667 </v>
   <v>       0.01041667 </v>
   <v>       0.01041667 </v>
   <v>       0.01041667 </v>
   <v>       0.01041667 </v>
   <v>       0.01041667 </v>
   <v>       0.01041667 </v>
   <v>       0.01041667 </v>
   <v>       0.01041667 </v>
   <v>       0.01041667 </v>
   <v>       0.01041667 </v>
   <v>       0.01041667 </v>
   <v>       0.01041667 </v>
   <v>       0.01041667 </v>
   <v>       0.01041667 </v>
   <v>       0.01041667 </v>
   <v>       0.01041667 </v>
   <v>       0.01041667 </v>
   <v>       0.01041667 </v>
   <v>       0.01041667 </v>
   <v>       0.01041667 </v>
   <v>       0.01041667 </v>
   <v>       0.01041667 </v>
   <v>       0.01041667 </v>
   <v>       0.01041667 </v>
   <v>       0.01041667 </v>
   <v>       0.01041667 </v>
   <v>       0.01041667 </v>
   <v>       0.01041667 </v>
   <v>       0.01041667 </v>
   <v>       0.01041667 </v>
   <v>       0.01041667 </v>
   <v>       0.01041667 </v>
   <v>       0.01041667 </v>
   <v>       0.01041667 </v>
   <v>       0.01041667 </v>
   <v>       0.01041667 </v>
   <v>       0.01041667 </v>
   <v>       0.01041667 </v>
   <v>       0.01041667 </v>
   <v>       0.01041667 </v>
   <v>       0.01041667 </v>
   <v>       0.01041667 </v>
   <v>       0.01041667 </v>
  </varray>
 </kpoints>
 <parameters>
  <separator name="general" >
   <i type="string" name="SYSTEM">unknown system</i>
   <i type="logical" name="LCOMPAT"> F  </i>
  </separator>
  <separator name="electronic" >
   <i type="string" name="PREC">normal</i>
   <i name="ENMAX">    450.00000000</i>
   <i name="ENAUG">    605.39200000</i>
   <i name="EDIFF">      0.00000100</i>
   <i type="int" name="IALGO">    38</i>
   <i type="int" name="IWAVPR">    11</i>
   <i type="int" name="NBANDS">    82</i>
   <i name="NELECT">    136.00000000</i>
   <i type="int" name="TURBO">     0</i>
   <i type="int" name="IRESTART">     0</i>
   <i type="int" name="NREBOOT">     0</i>
   <i type="int" name="NMIN">     0</i>
   <i name="EREF">      0.00000000</i>
   <separator name="electronic smearing" >
    <i type="int" name="ISMEAR">     2</i>
    <i name="SIGMA">      0.20000000</i>
    <i name="KSPACING">      0.50000000</i>
    <i type="logical" name="KGAMMA"> T  </i>
   </separator>
   <separator name="electronic projectors" >
    <i type="logical" name="LREAL"> F  </i>
    <v name="ROPT">      0.00000000      0.00000000      0.00000000      0.00000000</v>
    <i type="int" name="LMAXPAW">  -100</i>
    <i type="int" name="LMAXMIX">     2</i>
    <i type="logical" name="NLSPLINE"> F  </i>
   </separator>
   <separator name="electronic startup" >
    <i type="int" name="ISTART">     0</i>
    <i type="int" name="ICHARG">     2</i>
    <i type="int" name="INIWAV">     1</i>
   </separator>
   <separator name="electronic spin" >
    <i type="int" name="ISPIN">     1</i>
    <i type="logical" name="LNONCOLLINEAR"> F  </i>
    <v name="MAGMOM">      1.00000000      1.00000000      1.00000000      1.00000000      1.00000000      1.00000000      1.00000000      1.00000000      1.00000000      1.00000000      1.00000000      1.00000000      1.00000000      1.00000000      1.00000000</v>
    <i name="NUPDOWN">     -1.00000000</i>
    <i type="logical" name="LSORBIT"> F  </i>
    <v name="SAXIS">      0.00000000      0.00000000      1.00000000</v>
    <i type="logical" name="LSPIRAL"> F  </i>
    <v name="QSPIRAL">      0.00000000      0.00000000      0.00000000</v>
    <i type="logical" name="LZEROZ"> F  </i>
   </separator>
   <separator name="electronic exchange-correlation" >
    <i type="logical" name="LASPH"> F  </i>
    <i type="logical" name="LMETAGGA"> F  </i>
   </separator>
   <separator name="electronic convergence" >
    <i type="int" name="NELM">    60</i>
    <i type="int" name="NELMDL">    -5</i>
    <i type="int" name="NELMIN">     8</i>
    <i name="ENINI">    450.00000000</i>
    <separator name="electronic convergence detail" >
     <i type="logical" name="LDIAG"> T  </i>
     <i type="logical" name="LSUBROT"> F  </i>
     <i name="WEIMIN">      0.00100000</i>
     <i name="EBREAK">      0.00000000</i>
     <i name="DEPER">      0.30000000</i>
     <i type="int" name="NRMM">     4</i>
     <i name="TIME">      0.40000000</i>
    </separator>
   </separator>
   <separator name="electronic mixer" >
    <i name="AMIX">      0.40000000</i>
    <i name="BMIX">      1.00000000</i>
    <i name="AMIN">      0.10000000</i>
    <i name="AMIX_MAG">      1.60000000</i>
    <i name="BMIX_MAG">      1.00000000</i>
    <separator name="electronic mixer details" >
     <i type="int" name="IMIX">     4</i>
     <i type="logical" name="MIXFIRST"> F  </i>
     <i type="int" name="MAXMIX">   -45</i>
     <i name="WC">    100.00000000</i>
     <i type="int" name="INIMIX">     1</i>
     <i type="int" name="MIXPRE">     1</i>
     <i type="int" name="MREMOVE">     5</i>
    </separator>
   </separator>
   <separator name="electronic dipolcorrection" >
    <i type="logical" name="LDIPOL"> T  </i>
    <i type="logical" name="LMONO"> F  </i>
    <i type="int" name="IDIPOL">     3</i>
    <i name="EPSILON">      1.00000000</i>
    <v name="DIPOL">   -100.00000000   -100.00000000   -100.00000000</v>
    <i name="EFIELD">      0.00000000</i>
   </separator>
  </separator>
  <separator name="grids" >
   <i type="int" name="NGX">    28</i>
   <i type="int" name="NGY">    28</i>
   <i type="int" name="NGZ">   120</i>
   <i type="int" name="NGXF">    56</i>
   <i type="int" name="NGYF">    56</i>
   <i type="int" name="NGZF">   240</i>
   <i type="logical" name="ADDGRID"> F  </i>
  </separator>
  <separator name="ionic" >
   <i type="int" name="NSW">  1500</i>
   <i type="int" name="IBRION">     2</i>
   <i type="int" name="MDALGO">     0</i>
   <i type="int" name="ISIF">     2</i>
   <i name="PSTRESS">      0.00000000</i>
   <i name="EDIFFG">     -0.01000000</i>
   <i type="int" name="NFREE">     1</i>
   <i name="POTIM">      0.20000000</i>
   <i name="SMASS">     -3.00000000</i>
   <i name="SCALEE">      1.00000000</i>
  </separator>
  <separator name="ionic md" >
   <i name="TEBEG">      0.00010000</i>
   <i name="TEEND">      0.00010000</i>
   <i type="int" name="NBLOCK">     1</i>
   <i type="int" name="KBLOCK">  1500</i>
   <i type="int" name="NPACO">   256</i>
   <i name="APACO">     16.00000000</i>
  </separator>
  <separator name="symmetry" >
   <i type="int" name="ISYM">     2</i>
   <i name="SYMPREC">      0.00001000</i>
  </separator>
  <separator name="dos" >
   <i type="int" name="LORBIT">     0</i>
   <v name="RWIGS">     -1.00000000     -1.00000000     -1.00000000     -1.00000000</v>
   <i type="int" name="NEDOS">   301</i>
   <i name="EMIN">     10.00000000</i>
   <i name="EMAX">    -10.00000000</i>
   <i name="EFERMI">      0.00000000</i>
  </separator>
  <separator name="writing" >
   <i type="int" name="NWRITE">     2</i>
   <i type="logical" name="LWAVE"> F  </i>
   <i type="logical" name="LDOWNSAMPLE"> F  </i>
   <i type="logical" name="LCHARG"> T  </i>
   <i type="logical" name="LPARD"> F  </i>
   <i type="logical" name="LVTOT"> F  </i>
   <i type="logical" name="LVHAR"> F  </i>
   <i type="logical" name="LELF"> F  </i>
   <i type="logical" name="LOPTICS"> F  </i>
   <v name="STM">      0.00000000      0.00000000      0.00000000      0.00000000      0.00000000      0.00000000      0.00000000</v>
  </separator>
  <separator name="performance" >
   <i type="int" name="NPAR">     2</i>
   <i type="int" name="NSIM">     4</i>
   <i type="int" name="NBLK">    -1</i>
   <i type="logical" name="LPLANE"> T  </i>
   <i type="logical" name="LSCALAPACK"> T  </i>
   <i type="logical" name="LSCAAWARE"> F  </i>
   <i type="logical" name="LSCALU"> F  </i>
   <i type="logical" name="LASYNC"> F  </i>
   <i type="logical" name="LORBITALREAL"> F  </i>
  </separator>
  <separator name="miscellaneous" >
   <i type="int" name="IDIOT">     3</i>
   <i type="int" name="ISPECIAL">     0</i>
   <i type="logical" name="LMUSIC"> F  </i>
   <v name="POMASS">    195.08000000     63.54600000     16.00000000      1.00000000</v>
   <v name="DARWINR">      0.00000000      0.00000000      0.00000000      0.00000000</v>
   <v name="DARWINV">      1.00000000      1.00000000      1.00000000      1.00000000</v>
   <i type="logical" name="LCORR"> T  </i>
  </separator>
  <i type="logical" name="GGA_COMPAT"> T  </i>
  <i type="logical" name="LBERRY"> F  </i>
  <i type="int" name="ICORELEVEL">     0</i>
  <i type="logical" name="LDAU"> F  </i>
  <i type="int" name="I_CONSTRAINED_M">     0</i>
  <separator name="electronic exchange-correlation" >
   <i type="string" name="GGA">91</i>
   <i type="int" name="VOSKOWN">     0</i>
   <i type="logical" name="LHFCALC"> F  </i>
   <i type="string" name="PRECFOCK"></i>
   <i type="logical" name="LSYMGRAD"> F  </i>
   <i type="logical" name="LHFONE"> F  </i>
   <i type="logical" name="LRHFCALC"> F  </i>
   <i type="logical" name="LTHOMAS"> F  </i>
   <i type="logical" name="LMODELHF"> F  </i>
   <i name="ENCUT4O">     -1.00000000</i>
   <i type="int" name="EXXOEP">     0</i>
   <i type="int" name="FOURORBIT">     0</i>
   <i name="AEXX">      0.00000000</i>
   <i name="HFALPHA">      0.00000000</i>
   <i name="MCALPHA">      0.00000000</i>
   <i name="ALDAX">      1.00000000</i>
   <i name="AGGAX">      1.00000000</i>
   <i name="ALDAC">      1.00000000</i>
   <i name="AGGAC">      1.00000000</i>
   <i type="int" name="NKREDX">     1</i>
   <i type="int" name="NKREDY">     1</i>
   <i type="int" name="NKREDZ">     1</i>
   <i type="logical" name="SHIFTRED"> F  </i>
   <i type="logical" name="ODDONLY"> F  </i>
   <i type="logical" name="EVENONLY"> F  </i>
   <i type="int" name="LMAXFOCK">     0</i>
   <i type="int" name="NMAXFOCKAE">     0</i>
   <i type="logical" name="LFOCKAEDFT"> F  </i>
   <i name="HFSCREEN">      0.00000000</i>
   <i name="HFSCREENC">      0.00000000</i>
   <i type="int" name="NBANDSGWLOW">     0</i>
  </separator>
  <separator name="vdW DFT" >
   <i type="logical" name="LUSE_VDW"> F  </i>
   <i name="Zab_VDW">     -0.84910000</i>
   <i name="PARAM1">      0.12340000</i>
   <i name="PARAM2">      1.00000000</i>
   <i name="PARAM3">      0.00000000</i>
  </separator>
  <separator name="model GW" >
   <i type="int" name="MODEL_GW">     0</i>
   <i name="MODEL_EPS0">     18.26964953</i>
   <i name="MODEL_ALPHA">      1.00000000</i>
  </separator>
  <separator name="linear response parameters" >
   <i type="logical" name="LEPSILON"> F  </i>
   <i type="logical" name="LRPA"> F  </i>
   <i type="logical" name="LNABLA"> F  </i>
   <i type="logical" name="LVEL"> F  </i>
   <i type="int" name="KINTER">     0</i>
   <i name="CSHIFT">      0.10000000</i>
   <i name="OMEGAMAX">     -1.00000000</i>
   <i name="DEG_THRESHOLD">      0.00200000</i>
   <i name="RTIME">     -0.10000000</i>
   <i name="WPLASMAI">      0.00000000</i>
   <v name="DFIELD">      0.00000000      0.00000000      0.00000000</v>
   <v name="WPLASMA">      0.00000000      0.00000000      0.00000000      0.00000000      0.00000000      0.00000000      0.00000000      0.00000000      0.00000000</v>
  </separator>
  <separator name="orbital magnetization" >
   <i type="logical" name="NUCIND"> F  </i>
   <v name="MAGPOS">      0.00000000      0.00000000      0.00000000</v>
   <i type="logical" name="LNICSALL"> T  </i>
   <i type="logical" name="ORBITALMAG"> F  </i>
   <i type="logical" name="LMAGBLOCH"> F  </i>
   <i type="logical" name="LCHIMAG"> F  </i>
   <i type="logical" name="LGAUGE"> T  </i>
   <i type="int" name="MAGATOM">     0</i>
   <v name="MAGDIPOL">      0.00000000      0.00000000      0.00000000</v>
   <v name="AVECCONST">      0.00000000      0.00000000      0.00000000</v>
  </separator>
  <separator name="response functions" >
   <i type="logical" name="LADDER"> F  </i>
   <i type="logical" name="LRPAFORCE"> F  </i>
   <i type="logical" name="LFXC"> F  </i>
   <i type="logical" name="LHARTREE"> T  </i>
   <i type="int" name="IBSE">     0</i>
   <v type="int" name="KPOINT">    -1     0     0     0</v>
   <i type="logical" name="LTCTE"> F  </i>
   <i type="logical" name="LTETE"> F  </i>
   <i type="logical" name="LTRIPLET"> F  </i>
   <i type="logical" name="LFXCEPS"> F  </i>
   <i type="logical" name="LFXHEG"> F  </i>
   <i type="int" name="NATURALO">     2</i>
   <i type="logical" name="L2ORDER"> F  </i>
   <i type="logical" name="LMP2LT"> F  </i>
   <i type="logical" name="LUSEW"> F  </i>
   <i name="ENCUTGW">     -2.00000000</i>
   <i name="ENCUTGWSOFT">     -2.00000000</i>
   <i name="ENCUTLF">     -1.00000000</i>
   <i type="int" name="LMAXMP2">    -1</i>
   <i name="SCISSOR">      0.00000000</i>
   <i type="int" name="NOMEGA">     0</i>
   <i type="int" name="NOMEGAR">     0</i>
   <i type="int" name="NBANDSGW">    -1</i>
   <i type="int" name="NBANDSO">    -1</i>
   <i type="int" name="NBANDSV">    -1</i>
   <i type="int" name="NELM">     1</i>
   <i type="int" name="NELMHF">     1</i>
   <i type="int" name="DIM">     3</i>
   <i type="int" name="ANTIRES">     0</i>
   <i name="OMEGAMAX">    -30.00000000</i>
   <i name="OMEGAMIN">    -30.00000000</i>
   <i name="OMEGATL">   -200.00000000</i>
   <i type="int" name="OMEGAGRID">   140</i>
   <i name="CSHIFT">     -0.10000000</i>
   <i type="logical" name="SELFENERGY"> F  </i>
   <i type="logical" name="LSPECTRAL"> F  </i>
   <i type="logical" name="LSPECTRALGW"> F  </i>
   <i type="logical" name="LSINGLES"> F  </i>
   <i type="logical" name="LFERMIGW"> F  </i>
   <i type="logical" name="ODDONLYGW"> F  </i>
   <i type="logical" name="EVENONLYGW"> F  </i>
   <i type="int" name="NKREDLFX">     1</i>
   <i type="int" name="NKREDLFY">     1</i>
   <i type="int" name="NKREDLFZ">     1</i>
   <i type="int" name="MAXMEM">  2800</i>
   <i type="int" name="TELESCOPE">     0</i>
   <i type="int" name="TAUPAR">     1</i>
   <i type="int" name="OMEGAPAR">    -1</i>
   <i name="LAMBDA">      1.00000000</i>
  </separator>
  <separator name="External order field" >
   <i name="OFIELD_KAPPA">      0.00000000</i>
   <v name="OFIELD_K">      0.00000000      0.00000000      0.00000000</v>
   <i name="OFIELD_Q6_NEAR">      0.00000000</i>
   <i name="OFIELD_Q6_FAR">      0.00000000</i>
   <i name="OFIELD_A">      0.00000000</i>
  </separator>
 </parameters>
 <atominfo>
  <atoms>      15 </atoms>
  <types>       4 </types>
  <array name="atoms" >
   <dimension dim="1">ion</dimension>
   <field type="string">element</field>
   <field type="int">atomtype</field>
   <set>
    <rc><c>Pt</c><c>   1</c></rc>
    <rc><c>Pt</c><c>   1</c></rc>
    <rc><c>Pt</c><c>   1</c></rc>
    <rc><c>Pt</c><c>   1</c></rc>
    <rc><c>Pt</c><c>   1</c></rc>
    <rc><c>Pt</c><c>   1</c></rc>
    <rc><c>Pt</c><c>   1</c></rc>
    <rc><c>Pt</c><c>   1</c></rc>
    <rc><c>Pt</c><c>   1</c></rc>
    <rc><c>Cu</c><c>   2</c></rc>
    <rc><c>Cu</c><c>   2</c></rc>
    <rc><c>Cu</c><c>   2</c></rc>
    <rc><c>O </c><c>   3</c></rc>
    <rc><c>O </c><c>   3</c></rc>
    <rc><c>H </c><c>   4</c></rc>
   </set>
  </array>
  <array name="atomtypes" >
   <dimension dim="1">type</dimension>
   <field type="int">atomspertype</field>
   <field type="string">element</field>
   <field>mass</field>
   <field>valence</field>
   <field type="string">pseudopotential</field>
   <set>
    <rc><c>   9</c><c>Pt</c><c>    195.08000000</c><c>     10.00000000</c><c> PAW_PBE Pt 05Jan2001                   </c></rc>
    <rc><c>   3</c><c>Cu</c><c>     63.54600000</c><c>     11.00000000</c><c> PAW_PBE Cu 05Jan2001                   </c></rc>
    <rc><c>   2</c><c>O </c><c>     16.00000000</c><c>      6.00000000</c><c> PAW_PBE O 08Apr2002                    </c></rc>
    <rc><c>   1</c><c>H </c><c>      1.00000000</c><c>      1.00000000</c><c> PAW_PBE H 15Jun2001                    </c></rc>
   </set>
  </array>
 </atominfo>
 <structure name="initialpos" >
  <crystal>
   <varray name="basis" >
    <v>       4.88428255       0.00000000       0.00000000 </v>
    <v>       2.44214127       4.22991277       0.00000000 </v>
    <v>       0.00000000       0.00000000      22.10741862 </v>
   </varray>
   <i name="volume">    456.74123834 </i>
   <varray name="rec_basis" >
    <v>       0.20473836      -0.11820575       0.00000000 </v>
    <v>      -0.00000000       0.23641149       0.00000000 </v>
    <v>       0.00000000       0.00000000       0.04523368 </v>
   </varray>
  </crystal>
  <varray name="positions" >
   <v>       0.30286415       0.49410690       0.00209390 </v>
   <v>       0.63619748       0.82744023       0.00209390 </v>
   <v>       0.96953081       0.16077357       0.00209390 </v>
   <v>       0.63619748       0.49410690       0.10624323 </v>
   <v>       0.96953081       0.82744023       0.10624323 </v>
   <v>       0.30286415       0.16077357       0.10624323 </v>
   <v>       0.30286415       0.49410690       0.29515706 </v>
   <v>       0.63619748       0.82744023       0.29515706 </v>
   <v>       0.96953081       0.16077357       0.29515706 </v>
   <v>       0.96953081       0.49410690       0.20100327 </v>
   <v>       0.30286415       0.82744023       0.20100327 </v>
   <v>       0.63619748       0.16077357       0.20100327 </v>
   <v>       0.76871130       0.99259116       0.43532491 </v>
   <v>       0.63852722       0.81279312       0.40965579 </v>
   <v>       0.99225302       0.83012516       0.44138925 </v>
  </varray>
  <varray name="selective"  type="logical" >
   <v type="logical" >  F  F  F </v>
   <v type="logical" >  F  F  F </v>
   <v type="logical" >  F  F  F </v>
   <v type="logical" >  F  F  F </v>
   <v type="logical" >  F  F  F </v>
   <v type="logical" >  F  F  F </v>
   <v type="logical" >  T  T  T </v>
   <v type="logical" >  T  T  T </v>
   <v type="logical" >  T  T  T </v>
   <v type="logical" >  T  T  T </v>
   <v type="logical" >  T  T  T </v>
   <v type="logical" >  T  T  T </v>
   <v type="logical" >  T  T  T </v>
   <v type="logical" >  T  T  T </v>
   <v type="logical" >  T  T  T </v>
  </varray>
  <nose>
   <v>      -3.00000000       0.00000000       0.00010000       0.00010000 </v>
  </nose>
 </structure>
 <calculation>
  <scstep>
   <time name="dav">    7.67    7.80</time>
   <time name="total">    7.73    7.90</time>
   <dipole>
    <v name="dipole">      0.00000000       0.00000000      -0.00005141 </v>
    <i name="Tr[quadrupol]">   -557.17604285 </i>
    <i name="Echarged">      0.00000000 </i>
    <i name="Edipol_quadrupol">      0.00000000 </i>
    <i name="Eion">      0.00000000 </i>
   </dipole>
   <energy>
    <i name="alphaZ">    508.17309937 </i>
    <i name="ewald">  35048.58450250 </i>
    <i name="hartreedc"> -46820.93713411 </i>
    <i name="XCdc">    214.86780293 </i>
    <i name="pawpsdc">   8900.30602338 </i>
    <i name="pawaedc">  -9083.12751223 </i>
    <i name="eentropy">     -0.00087959 </i>
    <i name="bandstr">    992.10749323 </i>
    <i name="atom">  11614.96301856 </i>
    <i name="e_fr_energy">   1374.93641404 </i>
    <i name="e_wo_entrp">   1374.93729363 </i>
    <i name="e_0_energy">   1374.93663394 </i>
   </energy>
  </scstep>
  <scstep>
   <time name="dav">    7.62    7.62</time>
   <time name="total">    7.63    7.64</time>
   <dipole>
    <v name="dipole">      0.00000000       0.00000000      -0.00005141 </v>
    <i name="Tr[quadrupol]">   -557.17604285 </i>
    <i name="Echarged">      0.00000000 </i>
    <i name="Edipol_quadrupol">      0.00000000 </i>
    <i name="Eion">      0.00000000 </i>
   </dipole>
   <energy>
    <i name="e_fr_energy">    108.05322964 </i>
    <i name="e_wo_entrp">    108.05297501 </i>
    <i name="e_0_energy">    108.05316598 </i>
   </energy>
  </scstep>
  <scstep>
   <time name="dav">    9.32    9.33</time>
   <time name="total">    9.34    9.35</time>
   <dipole>
    <v name="dipole">      0.00000000       0.00000000      -0.00005141 </v>
    <i name="Tr[quadrupol]">   -557.17604285 </i>
    <i name="Echarged">      0.00000000 </i>
    <i name="Edipol_quadrupol">      0.00000000 </i>
    <i name="Eion">      0.00000000 </i>
   </dipole>
   <energy>
    <i name="e_fr_energy">    -71.61232555 </i>
    <i name="e_wo_entrp">    -71.61223210 </i>
    <i name="e_0_energy">    -71.61230219 </i>
   </energy>
  </scstep>
  <scstep>
   <time name="dav">    9.33    9.34</time>
   <time name="total">    9.35    9.36</time>
   <dipole>
    <v name="dipole">      0.00000000       0.00000000      -0.00005141 </v>
    <i name="Tr[quadrupol]">   -557.17604285 </i>
    <i name="Echarged">      0.00000000 </i>
    <i name="Edipol_quadrupol">      0.00000000 </i>
    <i name="Eion">      0.00000000 </i>
   </dipole>
   <energy>
    <i name="e_fr_energy">    -86.57075844 </i>
    <i name="e_wo_entrp">    -86.57336430 </i>
    <i name="e_0_energy">    -86.57140991 </i>
   </energy>
  </scstep>
  <scstep>
   <time name="dav">    9.85    9.85</time>
   <time name="total">   10.39   10.41</time>
   <dipole>
    <v name="dipole">      0.00000000       0.00000000      -0.00005141 </v>
    <i name="Tr[quadrupol]">   -557.17604285 </i>
    <i name="Echarged">      0.00000000 </i>
    <i name="Edipol_quadrupol">      0.00000000 </i>
    <i name="Eion">      0.00000000 </i>
   </dipole>
   <energy>
    <i name="e_fr_energy">    -86.98684780 </i>
    <i name="e_wo_entrp">    -86.98942187 </i>
    <i name="e_0_energy">    -86.98749132 </i>
   </energy>
  </scstep>
  <scstep>
   <time name="dav">    9.28    9.29</time>
   <time name="total">    9.82    9.84</time>
   <dipole>
    <v name="dipole">      0.00000000       0.00000000       0.56503487 </v>
    <i name="Tr[quadrupol]">   -554.72859466 </i>
    <i name="Echarged">      0.00000000 </i>
    <i name="Edipol_quadrupol">      0.00000000 </i>
    <i name="Eion">      0.00000000 </i>
   </dipole>
   <energy>
    <i name="e_fr_energy">    -98.95893902 </i>
    <i name="e_wo_entrp">    -98.96854508 </i>
    <i name="e_0_energy">    -98.96134053 </i>
   </energy>
  </scstep>
  <scstep>
   <time name="dav">   11.21   11.22</time>
   <time name="total">   11.74   11.75</time>
   <dipole>
    <v name="dipole">      0.00000000       0.00000000      -0.96920488 </v>
    <i name="Tr[quadrupol]">   -555.68562841 </i>
    <i name="Echarged">      0.00000000 </i>
    <i name="Edipol_quadrupol">      0.00000000 </i>
    <i name="Eion">      0.00000000 </i>
   </dipole>
   <energy>
    <i name="e_fr_energy">   -121.90853434 </i>
    <i name="e_wo_entrp">   -121.90742796 </i>
    <i name="e_0_energy">   -121.90825774 </i>
   </energy>
  </scstep>
  <scstep>
   <time name="dav">   10.18   10.19</time>
   <time name="total">   10.72   10.72</time>
   <dipole>
    <v name="dipole">      0.00000000       0.00000000      -0.02870703 </v>
    <i name="Tr[quadrupol]">   -557.86061372 </i>
    <i name="Echarged">      0.00000000 </i>
    <i name="Edipol_quadrupol">      0.00000000 </i>
    <i name="Eion">      0.00000000 </i>
   </dipole>
   <energy>
    <i name="e_fr_energy">    -80.79871004 </i>
    <i name="e_wo_entrp">    -80.78225770 </i>
    <i name="e_0_energy">    -80.79459695 </i>
   </energy>
  </scstep>
  <scstep>
   <time name="dav">   10.44   10.45</time>
   <time name="total">   10.98   10.99</time>
   <dipole>
    <v name="dipole">      0.00000000       0.00000000       0.00858377 </v>
    <i name="Tr[quadrupol]">   -556.53883099 </i>
    <i name="Echarged">      0.00000000 </i>
    <i name="Edipol_quadrupol">      0.00000000 </i>
    <i name="Eion">      0.00000000 </i>
   </dipole>
   <energy>
    <i name="e_fr_energy">    -78.77256413 </i>
    <i name="e_wo_entrp">    -78.75586896 </i>
    <i name="e_0_energy">    -78.76839034 </i>
   </energy>
  </scstep>
  <scstep>
   <time name="dav">   10.80   10.81</time>
   <time name="total">   11.35   11.36</time>
   <dipole>
    <v name="dipole">      0.00000000       0.00000000       0.01170130 </v>
    <i name="Tr[quadrupol]">   -556.72067662 </i>
    <i name="Echarged">      0.00000000 </i>
    <i name="Edipol_quadrupol">      0.00000000 </i>
    <i name="Eion">      0.00000000 </i>
   </dipole>
   <energy>
    <i name="e_fr_energy">    -77.76755233 </i>
    <i name="e_wo_entrp">    -77.75429507 </i>
    <i name="e_0_energy">    -77.76423801 </i>
   </energy>
  </scstep>
  <scstep>
   <time name="dav">   10.13   10.14</time>
   <time name="total">   10.74   10.75</time>
   <dipole>
    <v name="dipole">      0.00000000       0.00000000       0.07317897 </v>
    <i name="Tr[quadrupol]">   -556.79415782 </i>
    <i name="Echarged">      0.00000000 </i>
    <i name="Edipol_quadrupol">      0.00000000 </i>
    <i name="Eion">      0.00000000 </i>
   </dipole>
   <energy>
    <i name="e_fr_energy">    -77.64454684 </i>
    <i name="e_wo_entrp">    -77.62276553 </i>
    <i name="e_0_energy">    -77.63910151 </i>
   </energy>
  </scstep>
  <scstep>
   <time name="dav">    8.78    8.78</time>
   <time name="total">    9.33    9.34</time>
   <dipole>
    <v name="dipole">      0.00000000       0.00000000       0.04843101 </v>
    <i name="Tr[quadrupol]">   -556.95267543 </i>
    <i name="Echarged">      0.00000000 </i>
    <i name="Edipol_quadrupol">      0.00000000 </i>
    <i name="Eion">      0.00000000 </i>
   </dipole>
   <energy>
    <i name="e_fr_energy">    -77.57568190 </i>
    <i name="e_wo_entrp">    -77.56050699 </i>
    <i name="e_0_energy">    -77.57188817 </i>
   </energy>
  </scstep>
  <scstep>
   <time name="dav">   13.36   13.44</time>
   <time name="total">   13.91   13.99</time>
   <dipole>
    <v name="dipole">      0.00000000       0.00000000       0.07549612 </v>
    <i name="Tr[quadrupol]">   -556.92898766 </i>
    <i name="Echarged">      0.00000000 </i>
    <i name="Edipol_quadrupol">      0.00000000 </i>
    <i name="Eion">      0.00000000 </i>
   </dipole>
   <energy>
    <i name="e_fr_energy">    -77.60235789 </i>
    <i name="e_wo_entrp">    -77.57554445 </i>
    <i name="e_0_energy">    -77.59565453 </i>
   </energy>
  </scstep>
  <scstep>
   <time name="dav">    9.79    9.80</time>
   <time name="total">   10.34   10.35</time>
   <dipole>
    <v name="dipole">      0.00000000       0.00000000       0.05503931 </v>
    <i name="Tr[quadrupol]">   -557.05973587 </i>
    <i name="Echarged">      0.00000000 </i>
    <i name="Edipol_quadrupol">      0.00000000 </i>
    <i name="Eion">      0.00000000 </i>
   </dipole>
   <energy>
    <i name="e_fr_energy">    -77.53922551 </i>
    <i name="e_wo_entrp">    -77.51907092 </i>
    <i name="e_0_energy">    -77.53418687 </i>
   </energy>
  </scstep>
  <scstep>
   <time name="dav">    9.12    9.12</time>
   <time name="total">    9.67    9.67</time>
   <dipole>
    <v name="dipole">      0.00000000       0.00000000       0.05236516 </v>
    <i name="Tr[quadrupol]">   -557.12213449 </i>
    <i name="Echarged">      0.00000000 </i>
    <i name="Edipol_quadrupol">      0.00000000 </i>
    <i name="Eion">      0.00000000 </i>
   </dipole>
   <energy>
    <i name="e_fr_energy">    -77.52014775 </i>
    <i name="e_wo_entrp">    -77.49694372 </i>
    <i name="e_0_energy">    -77.51434674 </i>
   </energy>
  </scstep>
  <scstep>
   <time name="dav">    9.11    9.11</time>
   <time name="total">    9.66    9.67</time>
   <dipole>
    <v name="dipole">      0.00000000       0.00000000       0.04863072 </v>
    <i name="Tr[quadrupol]">   -557.14187634 </i>
    <i name="Echarged">      0.00000000 </i>
    <i name="Edipol_quadrupol">      0.00000000 </i>
    <i name="Eion">      0.00000000 </i>
   </dipole>
   <energy>
    <i name="e_fr_energy">    -77.51356682 </i>
    <i name="e_wo_entrp">    -77.49061705 </i>
    <i name="e_0_energy">    -77.50782938 </i>
   </energy>
  </scstep>
  <scstep>
   <time name="dav">    9.48    9.49</time>
   <time name="total">   10.04   10.04</time>
   <dipole>
    <v name="dipole">      0.00000000       0.00000000       0.04455769 </v>
    <i name="Tr[quadrupol]">   -557.18888260 </i>
    <i name="Echarged">      0.00000000 </i>
    <i name="Edipol_quadrupol">      0.00000000 </i>
    <i name="Eion">      0.00000000 </i>
   </dipole>
   <energy>
    <i name="e_fr_energy">    -77.50901078 </i>
    <i name="e_wo_entrp">    -77.48657833 </i>
    <i name="e_0_energy">    -77.50340267 </i>
   </energy>
  </scstep>
  <scstep>
   <time name="dav">    9.53    9.53</time>
   <time name="total">   10.08   10.09</time>
   <dipole>
    <v name="dipole">      0.00000000       0.00000000       0.04264736 </v>
    <i name="Tr[quadrupol]">   -557.22432530 </i>
    <i name="Echarged">      0.00000000 </i>
    <i name="Edipol_quadrupol">      0.00000000 </i>
    <i name="Eion">      0.00000000 </i>
   </dipole>
   <energy>
    <i name="e_fr_energy">    -77.50737545 </i>
    <i name="e_wo_entrp">    -77.48465295 </i>
    <i name="e_0_energy">    -77.50169482 </i>
   </energy>
  </scstep>
  <scstep>
   <time name="dav">    9.50    9.51</time>
   <time name="total">   10.05   10.06</time>
   <dipole>
    <v name="dipole">      0.00000000       0.00000000       0.04072688 </v>
    <i name="Tr[quadrupol]">   -557.26997426 </i>
    <i name="Echarged">      0.00000000 </i>
    <i name="Edipol_quadrupol">      0.00000000 </i>
    <i name="Eion">      0.00000000 </i>
   </dipole>
   <energy>
    <i name="e_fr_energy">    -77.50657011 </i>
    <i name="e_wo_entrp">    -77.48411189 </i>
    <i name="e_0_energy">    -77.50095556 </i>
   </energy>
  </scstep>
  <scstep>
   <time name="dav">    9.31    9.31</time>
   <time name="total">    9.86    9.86</time>
   <dipole>
    <v name="dipole">      0.00000000       0.00000000       0.03690992 </v>
    <i name="Tr[quadrupol]">   -557.34601582 </i>
    <i name="Echarged">      0.00000000 </i>
    <i name="Edipol_quadrupol">      0.00000000 </i>
    <i name="Eion">      0.00000000 </i>
   </dipole>
   <energy>
    <i name="e_fr_energy">    -77.50645663 </i>
    <i name="e_wo_entrp">    -77.48490756 </i>
    <i name="e_0_energy">    -77.50106936 </i>
   </energy>
  </scstep>
  <scstep>
   <time name="dav">    8.98    8.99</time>
   <time name="total">    9.53    9.54</time>
   <dipole>
    <v name="dipole">      0.00000000       0.00000000       0.03462998 </v>
    <i name="Tr[quadrupol]">   -557.38625748 </i>
    <i name="Echarged">      0.00000000 </i>
    <i name="Edipol_quadrupol">      0.00000000 </i>
    <i name="Eion">      0.00000000 </i>
   </dipole>
   <energy>
    <i name="e_fr_energy">    -77.50631179 </i>
    <i name="e_wo_entrp">    -77.48467470 </i>
    <i name="e_0_energy">    -77.50090252 </i>
   </energy>
  </scstep>
  <scstep>
   <time name="dav">    9.51    9.51</time>
   <time name="total">   10.05   10.06</time>
   <dipole>
    <v name="dipole">      0.00000000       0.00000000       0.03344124 </v>
    <i name="Tr[quadrupol]">   -557.41164191 </i>
    <i name="Echarged">      0.00000000 </i>
    <i name="Edipol_quadrupol">      0.00000000 </i>
    <i name="Eion">      0.00000000 </i>
   </dipole>
   <energy>
    <i name="e_fr_energy">    -77.50612534 </i>
    <i name="e_wo_entrp">    -77.48415384 </i>
    <i name="e_0_energy">    -77.50063246 </i>
   </energy>
  </scstep>
  <scstep>
   <time name="dav">    8.83    8.83</time>
   <time name="total">    9.38    9.38</time>
   <dipole>
    <v name="dipole">      0.00000000       0.00000000       0.03253574 </v>
    <i name="Tr[quadrupol]">   -557.43015818 </i>
    <i name="Echarged">      0.00000000 </i>
    <i name="Edipol_quadrupol">      0.00000000 </i>
    <i name="Eion">      0.00000000 </i>
   </dipole>
   <energy>
    <i name="e_fr_energy">    -77.50615581 </i>
    <i name="e_wo_entrp">    -77.48424308 </i>
    <i name="e_0_energy">    -77.50067763 </i>
   </energy>
  </scstep>
  <scstep>
   <time name="dav">    9.00    9.00</time>
   <time name="total">    9.55    9.56</time>
   <dipole>
    <v name="dipole">      0.00000000       0.00000000       0.03121864 </v>
    <i name="Tr[quadrupol]">   -557.47856470 </i>
    <i name="Echarged">      0.00000000 </i>
    <i name="Edipol_quadrupol">      0.00000000 </i>
    <i name="Eion">      0.00000000 </i>
   </dipole>
   <energy>
    <i name="e_fr_energy">    -77.50641926 </i>
    <i name="e_wo_entrp">    -77.48443880 </i>
    <i name="e_0_energy">    -77.50092415 </i>
   </energy>
  </scstep>
  <scstep>
   <time name="dav">    8.68    8.69</time>
   <time name="total">    9.23    9.24</time>
   <dipole>
    <v name="dipole">      0.00000000       0.00000000       0.03005021 </v>
    <i name="Tr[quadrupol]">   -557.51466889 </i>
    <i name="Echarged">      0.00000000 </i>
    <i name="Edipol_quadrupol">      0.00000000 </i>
    <i name="Eion">      0.00000000 </i>
   </dipole>
   <energy>
    <i name="e_fr_energy">    -77.50669475 </i>
    <i name="e_wo_entrp">    -77.48470181 </i>
    <i name="e_0_energy">    -77.50119652 </i>
   </energy>
  </scstep>
  <scstep>
   <time name="dav">    9.27    9.28</time>
   <time name="total">    9.82    9.82</time>
   <dipole>
    <v name="dipole">      0.00000000       0.00000000       0.02835097 </v>
    <i name="Tr[quadrupol]">   -557.53939562 </i>
    <i name="Echarged">      0.00000000 </i>
    <i name="Edipol_quadrupol">      0.00000000 </i>
    <i name="Eion">      0.00000000 </i>
   </dipole>
   <energy>
    <i name="e_fr_energy">    -77.50689809 </i>
    <i name="e_wo_entrp">    -77.48494935 </i>
    <i name="e_0_energy">    -77.50141091 </i>
   </energy>
  </scstep>
  <scstep>
   <time name="dav">    8.61    8.61</time>
   <time name="total">    9.16    9.17</time>
   <dipole>
    <v name="dipole">      0.00000000       0.00000000       0.02725246 </v>
    <i name="Tr[quadrupol]">   -557.55962009 </i>
    <i name="Echarged">      0.00000000 </i>
    <i name="Edipol_quadrupol">      0.00000000 </i>
    <i name="Eion">      0.00000000 </i>
   </dipole>
   <energy>
    <i name="e_fr_energy">    -77.50702181 </i>
    <i name="e_wo_entrp">    -77.48514879 </i>
    <i name="e_0_energy">    -77.50155356 </i>
   </energy>
  </scstep>
  <scstep>
   <time name="dav">    8.72    8.73</time>
   <time name="total">    9.28    9.29</time>
   <dipole>
    <v name="dipole">      0.00000000       0.00000000       0.02560278 </v>
    <i name="Tr[quadrupol]">   -557.58776576 </i>
    <i name="Echarged">      0.00000000 </i>
    <i name="Edipol_quadrupol">      0.00000000 </i>
    <i name="Eion">      0.00000000 </i>
   </dipole>
   <energy>
    <i name="e_fr_energy">    -77.50712917 </i>
    <i name="e_wo_entrp">    -77.48526709 </i>
    <i name="e_0_energy">    -77.50166365 </i>
   </energy>
  </scstep>
  <scstep>
   <time name="dav">   11.54   11.54</time>
   <time name="total">   12.09   12.10</time>
   <dipole>
    <v name="dipole">      0.00000000       0.00000000       0.02038430 </v>
    <i name="Tr[quadrupol]">   -557.56469500 </i>
    <i name="Echarged">      0.00000000 </i>
    <i name="Edipol_quadrupol">      0.00000000 </i>
    <i name="Eion">      0.00000000 </i>
   </dipole>
   <energy>
    <i name="e_fr_energy">    -77.50739930 </i>
    <i name="e_wo_entrp">    -77.48548706 </i>
    <i name="e_0_energy">    -77.50192124 </i>
   </energy>
  </scstep>
  <scstep>
   <time name="dav">    7.73    7.74</time>
   <time name="total">    8.28    8.29</time>
   <dipole>
    <v name="dipole">      0.00000000       0.00000000       0.01928013 </v>
    <i name="Tr[quadrupol]">   -557.54803165 </i>
    <i name="Echarged">      0.00000000 </i>
    <i name="Edipol_quadrupol">      0.00000000 </i>
    <i name="Eion">      0.00000000 </i>
   </dipole>
   <energy>
    <i name="e_fr_energy">    -77.50741038 </i>
    <i name="e_wo_entrp">    -77.48547714 </i>
    <i name="e_0_energy">    -77.50192707 </i>
   </energy>
  </scstep>
  <scstep>
   <time name="dav">    6.49    6.49</time>
   <time name="total">    7.03    7.04</time>
   <dipole>
    <v name="dipole">      0.00000000       0.00000000       0.01943706 </v>
    <i name="Tr[quadrupol]">   -557.54372741 </i>
    <i name="Echarged">      0.00000000 </i>
    <i name="Edipol_quadrupol">      0.00000000 </i>
    <i name="Eion">      0.00000000 </i>
   </dipole>
   <energy>
    <i name="e_fr_energy">    -77.50733169 </i>
    <i name="e_wo_entrp">    -77.48540008 </i>
    <i name="e_0_energy">    -77.50184879 </i>
   </energy>
  </scstep>
  <scstep>
   <time name="dav">    9.60    9.61</time>
   <time name="total">   10.15   10.16</time>
   <dipole>
    <v name="dipole">      0.00000000       0.00000000       0.02129824 </v>
    <i name="Tr[quadrupol]">   -557.54253063 </i>
    <i name="Echarged">      0.00000000 </i>
    <i name="Edipol_quadrupol">      0.00000000 </i>
    <i name="Eion">      0.00000000 </i>
   </dipole>
   <energy>
    <i name="e_fr_energy">    -77.50719660 </i>
    <i name="e_wo_entrp">    -77.48528855 </i>
    <i name="e_0_energy">    -77.50171959 </i>
   </energy>
  </scstep>
  <scstep>
   <time name="dav">    8.05    8.05</time>
   <time name="total">    8.60    8.60</time>
   <dipole>
    <v name="dipole">      0.00000000       0.00000000       0.02177191 </v>
    <i name="Tr[quadrupol]">   -557.54401970 </i>
    <i name="Echarged">      0.00000000 </i>
    <i name="Edipol_quadrupol">      0.00000000 </i>
    <i name="Eion">      0.00000000 </i>
   </dipole>
   <energy>
    <i name="e_fr_energy">    -77.50720365 </i>
    <i name="e_wo_entrp">    -77.48532398 </i>
    <i name="e_0_energy">    -77.50173373 </i>
   </energy>
  </scstep>
  <scstep>
   <time name="dav">    6.94    6.95</time>
   <time name="total">    7.50    7.50</time>
   <dipole>
    <v name="dipole">      0.00000000       0.00000000       0.02235712 </v>
    <i name="Tr[quadrupol]">   -557.54371283 </i>
    <i name="Echarged">      0.00000000 </i>
    <i name="Edipol_quadrupol">      0.00000000 </i>
    <i name="Eion">      0.00000000 </i>
   </dipole>
   <energy>
    <i name="e_fr_energy">    -77.50722620 </i>
    <i name="e_wo_entrp">    -77.48535563 </i>
    <i name="e_0_energy">    -77.50175856 </i>
   </energy>
  </scstep>
  <scstep>
   <time name="dav">    8.11    8.12</time>
   <time name="total">    8.67    8.67</time>
   <dipole>
    <v name="dipole">      0.00000000       0.00000000       0.02304210 </v>
    <i name="Tr[quadrupol]">   -557.54276508 </i>
    <i name="Echarged">      0.00000000 </i>
    <i name="Edipol_quadrupol">      0.00000000 </i>
    <i name="Eion">      0.00000000 </i>
   </dipole>
   <energy>
    <i name="e_fr_energy">    -77.50724522 </i>
    <i name="e_wo_entrp">    -77.48538814 </i>
    <i name="e_0_energy">    -77.50178095 </i>
   </energy>
  </scstep>
  <scstep>
   <time name="dav">    7.16    7.17</time>
   <time name="total">    7.71    7.72</time>
   <dipole>
    <v name="dipole">      0.00000000       0.00000000       0.02344286 </v>
    <i name="Tr[quadrupol]">   -557.54217960 </i>
    <i name="Echarged">      0.00000000 </i>
    <i name="Edipol_quadrupol">      0.00000000 </i>
    <i name="Eion">      0.00000000 </i>
   </dipole>
   <energy>
    <i name="e_fr_energy">    -77.50723631 </i>
    <i name="e_wo_entrp">    -77.48538815 </i>
    <i name="e_0_energy">    -77.50177427 </i>
   </energy>
  </scstep>
  <scstep>
   <time name="dav">    6.42    6.42</time>
   <time name="total">    6.98    6.99</time>
   <dipole>
    <v name="dipole">      0.00000000       0.00000000       0.02352861 </v>
    <i name="Tr[quadrupol]">   -557.54371354 </i>
    <i name="Echarged">      0.00000000 </i>
    <i name="Edipol_quadrupol">      0.00000000 </i>
    <i name="Eion">      0.00000000 </i>
   </dipole>
   <energy>
    <i name="e_fr_energy">    -77.50722177 </i>
    <i name="e_wo_entrp">    -77.48537464 </i>
    <i name="e_0_energy">    -77.50175999 </i>
   </energy>
  </scstep>
  <scstep>
   <time name="dav">    6.66    6.67</time>
   <time name="total">    7.22    7.22</time>
   <dipole>
    <v name="dipole">      0.00000000       0.00000000       0.02337375 </v>
    <i name="Tr[quadrupol]">   -557.54904995 </i>
    <i name="Echarged">      0.00000000 </i>
    <i name="Edipol_quadrupol">      0.00000000 </i>
    <i name="Eion">      0.00000000 </i>
   </dipole>
   <energy>
    <i name="e_fr_energy">    -77.50721308 </i>
    <i name="e_wo_entrp">    -77.48536397 </i>
    <i name="e_0_energy">    -77.50175081 </i>
   </energy>
  </scstep>
  <scstep>
   <time name="dav">    6.73    6.73</time>
   <time name="total">    7.28    7.28</time>
   <dipole>
    <v name="dipole">      0.00000000       0.00000000       0.02334505 </v>
    <i name="Tr[quadrupol]">   -557.54937768 </i>
    <i name="Echarged">      0.00000000 </i>
    <i name="Edipol_quadrupol">      0.00000000 </i>
    <i name="Eion">      0.00000000 </i>
   </dipole>
   <energy>
    <i name="e_fr_energy">    -77.50721171 </i>
    <i name="e_wo_entrp">    -77.48535777 </i>
    <i name="e_0_energy">    -77.50174823 </i>
   </energy>
  </scstep>
  <scstep>
   <time name="dav">    5.79    5.80</time>
   <time name="total">    6.35    6.35</time>
   <dipole>
    <v name="dipole">      0.00000000       0.00000000       0.02379422 </v>
    <i name="Tr[quadrupol]">   -557.58045479 </i>
    <i name="Echarged">      0.00000000 </i>
    <i name="Edipol_quadrupol">      0.00000000 </i>
    <i name="Eion">      0.00000000 </i>
   </dipole>
   <energy>
    <i name="e_fr_energy">    -77.50721665 </i>
    <i name="e_wo_entrp">    -77.48536145 </i>
    <i name="e_0_energy">    -77.50175285 </i>
   </energy>
  </scstep>
  <scstep>
   <time name="dav">    6.07    6.08</time>
   <time name="total">    6.62    6.63</time>
   <dipole>
    <v name="dipole">      0.00000000       0.00000000       0.02384915 </v>
    <i name="Tr[quadrupol]">   -557.59397123 </i>
    <i name="Echarged">      0.00000000 </i>
    <i name="Edipol_quadrupol">      0.00000000 </i>
    <i name="Eion">      0.00000000 </i>
   </dipole>
   <energy>
    <i name="e_fr_energy">    -77.50721484 </i>
    <i name="e_wo_entrp">    -77.48536044 </i>
    <i name="e_0_energy">    -77.50175124 </i>
   </energy>
  </scstep>
  <scstep>
   <time name="dav">    5.96    5.96</time>
   <time name="total">    6.51    6.52</time>
   <dipole>
    <v name="dipole">      0.00000000       0.00000000       0.02377314 </v>
    <i name="Tr[quadrupol]">   -557.59908996 </i>
    <i name="Echarged">      0.00000000 </i>
    <i name="Edipol_quadrupol">      0.00000000 </i>
    <i name="Eion">      0.00000000 </i>
   </dipole>
   <energy>
    <i name="e_fr_energy">    -77.50721290 </i>
    <i name="e_wo_entrp">    -77.48535381 </i>
    <i name="e_0_energy">    -77.50174813 </i>
   </energy>
  </scstep>
  <scstep>
   <time name="dav">    6.03    6.04</time>
   <time name="total">    6.58    6.59</time>
   <dipole>
    <v name="dipole">      0.00000000       0.00000000       0.02370586 </v>
    <i name="Tr[quadrupol]">   -557.60446564 </i>
    <i name="Echarged">      0.00000000 </i>
    <i name="Edipol_quadrupol">      0.00000000 </i>
    <i name="Eion">      0.00000000 </i>
   </dipole>
   <energy>
    <i name="e_fr_energy">    -77.50721178 </i>
    <i name="e_wo_entrp">    -77.48534865 </i>
    <i name="e_0_energy">    -77.50174600 </i>
   </energy>
  </scstep>
  <scstep>
   <time name="dav">    5.85    5.85</time>
   <time name="total">    5.88    5.89</time>
   <dipole>
    <v name="dipole">      0.00000000       0.00000000       0.02375180 </v>
    <i name="Tr[quadrupol]">   -557.60487737 </i>
    <i name="Echarged">      0.00000000 </i>
    <i name="Edipol_quadrupol">      0.00000000 </i>
    <i name="Eion">      0.00000000 </i>
   </dipole>
   <energy>
    <i name="alphaZ">    508.90580570 </i>
    <i name="ewald">  35048.58450250 </i>
    <i name="hartreedc"> -46693.65753436 </i>
    <i name="XCdc">    209.93764118 </i>
    <i name="pawpsdc">   9127.00615388 </i>
    <i name="pawaedc">  -9331.56927588 </i>
    <i name="eentropy">     -0.02186431 </i>
    <i name="bandstr">   -561.65565910 </i>
    <i name="atom">  11614.96301856 </i>
    <i name="e_fr_energy">    -77.50721183 </i>
    <i name="e_wo_entrp">    -77.48534753 </i>
    <i name="e_0_energy">    -77.50174576 </i>
   </energy>
  </scstep>
  <structure>
   <crystal>
    <varray name="basis" >
     <v>       4.88428255       0.00000000       0.00000000 </v>
     <v>       2.44214127       4.22991277       0.00000000 </v>
     <v>       0.00000000       0.00000000      22.10741862 </v>
    </varray>
    <i name="volume">    456.74123834 </i>
    <varray name="rec_basis" >
     <v>       0.20473836      -0.11820575       0.00000000 </v>
     <v>      -0.00000000       0.23641149       0.00000000 </v>
     <v>       0.00000000       0.00000000       0.04523368 </v>
    </varray>
   </crystal>
   <varray name="positions" >
    <v>       0.30286415       0.49410690       0.00209390 </v>
    <v>       0.63619748       0.82744023       0.00209390 </v>
    <v>       0.96953081       0.16077357       0.00209390 </v>
    <v>       0.63619748       0.49410690       0.10624323 </v>
    <v>       0.96953081       0.82744023       0.10624323 </v>
    <v>       0.30286415       0.16077357       0.10624323 </v>
    <v>       0.30286415       0.49410690       0.29515706 </v>
    <v>       0.63619748       0.82744023       0.29515706 </v>
    <v>       0.96953081       0.16077357       0.29515706 </v>
    <v>       0.96953081       0.49410690       0.20100327 </v>
    <v>       0.30286415       0.82744023       0.20100327 </v>
    <v>       0.63619748       0.16077357       0.20100327 </v>
    <v>       0.76871130       0.99259116       0.43532491 </v>
    <v>       0.63852722       0.81279312       0.40965579 </v>
    <v>       0.99225302       0.83012516       0.44138925 </v>
   </varray>
  </structure>
  <varray name="forces" >
   <v>       0.00153275      -0.00600079      -0.24759316 </v>
   <v>      -0.01527184       0.00403214      -0.40569895 </v>
   <v>       0.00703085       0.01068199      -0.25241725 </v>
   <v>       0.02269844       0.03146347       0.34204562 </v>
   <v>      -0.02959482      -0.01261237       0.33478234 </v>
   <v>       0.01446485      -0.02954387       0.34014743 </v>
   <v>       0.00526833       0.00911546      -0.12975405 </v>
   <v>       0.02150244      -0.02580264       1.33374924 </v>
   <v>      -0.02459364      -0.00239839      -0.03863908 </v>
   <v>      -0.04563909       0.06420614      -0.02048788 </v>
   <v>       0.07253984       0.01219320      -0.01837619 </v>
   <v>      -0.02778890      -0.07264845      -0.04305370 </v>
   <v>      -0.91232477      -0.66257144      -0.53715745 </v>
   <v>       0.90757740       0.64451957      -0.62145237 </v>
   <v>       0.00259816       0.03536597      -0.03609454 </v>
  </varray>
  <varray name="stress" >
   <v>     -58.57717387      -2.19170592      -1.59153543 </v>
   <v>      -2.19170591     -56.17241621      -1.05416519 </v>
   <v>      -1.59153543      -1.05416520      -7.55173267 </v>
  </varray>
  <energy>
   <i name="e_fr_energy">    -77.50721183 </i>
   <i name="e_wo_entrp">    -77.50174576 </i>
   <i name="e_0_energy">     -0.02186431 </i>
  </energy>
  <time name="totalsc">  408.14  408.77</time>
 </calculation>
 <calculation>
  <scstep>
   <time name="dav">    7.67    7.67</time>
   <time name="total">    8.23    8.24</time>
   <dipole>
    <v name="dipole">      0.00000000       0.00000000       0.02376870 </v>
    <i name="Tr[quadrupol]">   -557.44972283 </i>
    <i name="Echarged">      0.00000000 </i>
    <i name="Edipol_quadrupol">      0.00000000 </i>
    <i name="Eion">      0.00000000 </i>
   </dipole>
   <energy>
    <i name="alphaZ">    508.90564212 </i>
    <i name="ewald">  35045.61224051 </i>
    <i name="hartreedc"> -46689.07736302 </i>
    <i name="XCdc">    210.01453264 </i>
    <i name="pawpsdc">   9127.00475317 </i>
    <i name="pawaedc">  -9331.56765225 </i>
    <i name="eentropy">     -0.02677114 </i>
    <i name="bandstr">   -563.39858548 </i>
    <i name="atom">  11614.96301856 </i>
    <i name="e_fr_energy">    -77.57018487 </i>
    <i name="e_wo_entrp">    -77.54341374 </i>
    <i name="e_0_energy">    -77.56349209 </i>
   </energy>
  </scstep>
  <scstep>
   <time name="dav">   11.95   11.96</time>
   <time name="total">   12.51   12.52</time>
   <dipole>
    <v name="dipole">      0.00000000       0.00000000      -0.09878578 </v>
    <i name="Tr[quadrupol]">   -557.61314715 </i>
    <i name="Echarged">      0.00000000 </i>
    <i name="Edipol_quadrupol">      0.00000000 </i>
    <i name="Eion">      0.00000000 </i>
   </dipole>
   <energy>
    <i name="e_fr_energy">    -78.50731366 </i>
    <i name="e_wo_entrp">    -78.49009362 </i>
    <i name="e_0_energy">    -78.50300865 </i>
   </energy>
  </scstep>
  <scstep>
   <time name="dav">   11.40   11.41</time>
   <time name="total">   11.98   11.99</time>
   <dipole>
    <v name="dipole">      0.00000000       0.00000000       0.00624106 </v>
    <i name="Tr[quadrupol]">   -557.72778689 </i>
    <i name="Echarged">      0.00000000 </i>
    <i name="Edipol_quadrupol">      0.00000000 </i>
    <i name="Eion">      0.00000000 </i>
   </dipole>
   <energy>
    <i name="e_fr_energy">    -77.62377999 </i>
    <i name="e_wo_entrp">    -77.61326662 </i>
    <i name="e_0_energy">    -77.62115165 </i>
   </energy>
  </scstep>
  <scstep>
   <time name="dav">   10.47   10.48</time>
   <time name="total">   11.03   11.04</time>
   <dipole>
    <v name="dipole">      0.00000000       0.00000000       0.00163503 </v>
    <i name="Tr[quadrupol]">   -557.58380314 </i>
    <i name="Echarged">      0.00000000 </i>
    <i name="Edipol_quadrupol">      0.00000000 </i>
    <i name="Eion">      0.00000000 </i>
   </dipole>
   <energy>
    <i name="e_fr_energy">    -77.58392127 </i>
    <i name="e_wo_entrp">    -77.56134410 </i>
    <i name="e_0_energy">    -77.57827698 </i>
   </energy>
  </scstep>
  <scstep>
   <time name="dav">   10.23   10.24</time>
   <time name="total">   10.78   10.79</time>
   <dipole>
    <v name="dipole">      0.00000000       0.00000000       0.00544132 </v>
    <i name="Tr[quadrupol]">   -557.59787991 </i>
    <i name="Echarged">      0.00000000 </i>
    <i name="Edipol_quadrupol">      0.00000000 </i>
    <i name="Eion">      0.00000000 </i>
   </dipole>
   <energy>
    <i name="e_fr_energy">    -77.58303523 </i>
    <i name="e_wo_entrp">    -77.55874616 </i>
    <i name="e_0_energy">    -77.57696296 </i>
   </energy>
  </scstep>
  <scstep>
   <time name="dav">   10.18   10.19</time>
   <time name="total">   10.73   10.74</time>
   <dipole>
    <v name="dipole">      0.00000000       0.00000000       0.00730252 </v>
    <i name="Tr[quadrupol]">   -557.57721713 </i>
    <i name="Echarged">      0.00000000 </i>
    <i name="Edipol_quadrupol">      0.00000000 </i>
    <i name="Eion">      0.00000000 </i>
   </dipole>
   <energy>
    <i name="e_fr_energy">    -77.58284582 </i>
    <i name="e_wo_entrp">    -77.55747940 </i>
    <i name="e_0_energy">    -77.57650422 </i>
   </energy>
  </scstep>
  <scstep>
   <time name="dav">   10.41   10.42</time>
   <time name="total">   10.96   10.97</time>
   <dipole>
    <v name="dipole">      0.00000000       0.00000000       0.00142461 </v>
    <i name="Tr[quadrupol]">   -557.62177440 </i>
    <i name="Echarged">      0.00000000 </i>
    <i name="Edipol_quadrupol">      0.00000000 </i>
    <i name="Eion">      0.00000000 </i>
   </dipole>
   <energy>
    <i name="e_fr_energy">    -77.58272921 </i>
    <i name="e_wo_entrp">    -77.55919698 </i>
    <i name="e_0_energy">    -77.57684615 </i>
   </energy>
  </scstep>
  <scstep>
   <time name="dav">    9.23    9.25</time>
   <time name="total">    9.78    9.80</time>
   <dipole>
    <v name="dipole">      0.00000000       0.00000000       0.00350358 </v>
    <i name="Tr[quadrupol]">   -557.61718685 </i>
    <i name="Echarged">      0.00000000 </i>
    <i name="Edipol_quadrupol">      0.00000000 </i>
    <i name="Eion">      0.00000000 </i>
   </dipole>
   <energy>
    <i name="e_fr_energy">    -77.58190168 </i>
    <i name="e_wo_entrp">    -77.55807565 </i>
    <i name="e_0_energy">    -77.57594517 </i>
   </energy>
  </scstep>
  <scstep>
   <time name="dav">    9.68    9.68</time>
   <time name="total">   10.23   10.23</time>
   <dipole>
    <v name="dipole">      0.00000000       0.00000000       0.00424884 </v>
    <i name="Tr[quadrupol]">   -557.62091193 </i>
    <i name="Echarged">      0.00000000 </i>
    <i name="Edipol_quadrupol">      0.00000000 </i>
    <i name="Eion">      0.00000000 </i>
   </dipole>
   <energy>
    <i name="e_fr_energy">    -77.58183133 </i>
    <i name="e_wo_entrp">    -77.55807677 </i>
    <i name="e_0_energy">    -77.57589269 </i>
   </energy>
  </scstep>
  <scstep>
   <time name="dav">    9.08    9.09</time>
   <time name="total">    9.63    9.64</time>
   <dipole>
    <v name="dipole">      0.00000000       0.00000000       0.00323281 </v>
    <i name="Tr[quadrupol]">   -557.62348213 </i>
    <i name="Echarged">      0.00000000 </i>
    <i name="Edipol_quadrupol">      0.00000000 </i>
    <i name="Eion">      0.00000000 </i>
   </dipole>
   <energy>
    <i name="e_fr_energy">    -77.58184858 </i>
    <i name="e_wo_entrp">    -77.55804574 </i>
    <i name="e_0_energy">    -77.57589787 </i>
   </energy>
  </scstep>
  <scstep>
   <time name="dav">   11.67   11.68</time>
   <time name="total">   12.56   12.57</time>
   <dipole>
    <v name="dipole">      0.00000000       0.00000000       0.00289056 </v>
    <i name="Tr[quadrupol]">   -557.62507336 </i>
    <i name="Echarged">      0.00000000 </i>
    <i name="Edipol_quadrupol">      0.00000000 </i>
    <i name="Eion">      0.00000000 </i>
   </dipole>
   <energy>
    <i name="e_fr_energy">    -77.58186773 </i>
    <i name="e_wo_entrp">    -77.55804898 </i>
    <i name="e_0_energy">    -77.57591304 </i>
   </energy>
  </scstep>
  <scstep>
   <time name="dav">    9.27    9.30</time>
   <time name="total">    9.85    9.87</time>
   <dipole>
    <v name="dipole">      0.00000000       0.00000000       0.00279783 </v>
    <i name="Tr[quadrupol]">   -557.62558021 </i>
    <i name="Echarged">      0.00000000 </i>
    <i name="Edipol_quadrupol">      0.00000000 </i>
    <i name="Eion">      0.00000000 </i>
   </dipole>
   <energy>
    <i name="e_fr_energy">    -77.58187942 </i>
    <i name="e_wo_entrp">    -77.55803753 </i>
    <i name="e_0_energy">    -77.57591895 </i>
   </energy>
  </scstep>
  <scstep>
   <time name="dav">    8.63    8.64</time>
   <time name="total">    9.18    9.19</time>
   <dipole>
    <v name="dipole">      0.00000000       0.00000000       0.00242371 </v>
    <i name="Tr[quadrupol]">   -557.62681978 </i>
    <i name="Echarged">      0.00000000 </i>
    <i name="Edipol_quadrupol">      0.00000000 </i>
    <i name="Eion">      0.00000000 </i>
   </dipole>
   <energy>
    <i name="e_fr_energy">    -77.58191370 </i>
    <i name="e_wo_entrp">    -77.55805019 </i>
    <i name="e_0_energy">    -77.57594782 </i>
   </energy>
  </scstep>
  <scstep>
   <time name="dav">    7.87    7.87</time>
   <time name="total">    8.42    8.43</time>
   <dipole>
    <v name="dipole">      0.00000000       0.00000000       0.00188214 </v>
    <i name="Tr[quadrupol]">   -557.62933450 </i>
    <i name="Echarged">      0.00000000 </i>
    <i name="Edipol_quadrupol">      0.00000000 </i>
    <i name="Eion">      0.00000000 </i>
   </dipole>
   <energy>
    <i name="e_fr_energy">    -77.58194747 </i>
    <i name="e_wo_entrp">    -77.55816957 </i>
    <i name="e_0_energy">    -77.57600299 </i>
   </energy>
  </scstep>
  <scstep>
   <time name="dav">    7.32    7.35</time>
   <time name="total">    7.87    7.90</time>
   <dipole>
    <v name="dipole">      0.00000000       0.00000000       0.00167122 </v>
    <i name="Tr[quadrupol]">   -557.63038736 </i>
    <i name="Echarged">      0.00000000 </i>
    <i name="Edipol_quadrupol">      0.00000000 </i>
    <i name="Eion">      0.00000000 </i>
   </dipole>
   <energy>
    <i name="e_fr_energy">    -77.58196411 </i>
    <i name="e_wo_entrp">    -77.55817382 </i>
    <i name="e_0_energy">    -77.57601654 </i>
   </energy>
  </scstep>
  <scstep>
   <time name="dav">    7.15    7.16</time>
   <time name="total">    7.71    7.71</time>
   <dipole>
    <v name="dipole">      0.00000000       0.00000000       0.00140118 </v>
    <i name="Tr[quadrupol]">   -557.63156662 </i>
    <i name="Echarged">      0.00000000 </i>
    <i name="Edipol_quadrupol">      0.00000000 </i>
    <i name="Eion">      0.00000000 </i>
   </dipole>
   <energy>
    <i name="e_fr_energy">    -77.58197866 </i>
    <i name="e_wo_entrp">    -77.55817918 </i>
    <i name="e_0_energy">    -77.57602879 </i>
   </energy>
  </scstep>
  <scstep>
   <time name="dav">    7.09    7.10</time>
   <time name="total">    7.64    7.65</time>
   <dipole>
    <v name="dipole">      0.00000000       0.00000000       0.00111514 </v>
    <i name="Tr[quadrupol]">   -557.63306511 </i>
    <i name="Echarged">      0.00000000 </i>
    <i name="Edipol_quadrupol">      0.00000000 </i>
    <i name="Eion">      0.00000000 </i>
   </dipole>
   <energy>
    <i name="e_fr_energy">    -77.58199048 </i>
    <i name="e_wo_entrp">    -77.55819326 </i>
    <i name="e_0_energy">    -77.57604118 </i>
   </energy>
  </scstep>
  <scstep>
   <time name="dav">    7.20    7.21</time>
   <time name="total">    7.76    7.76</time>
   <dipole>
    <v name="dipole">      0.00000000       0.00000000       0.00062922 </v>
    <i name="Tr[quadrupol]">   -557.63515916 </i>
    <i name="Echarged">      0.00000000 </i>
    <i name="Edipol_quadrupol">      0.00000000 </i>
    <i name="Eion">      0.00000000 </i>
   </dipole>
   <energy>
    <i name="e_fr_energy">    -77.58199926 </i>
    <i name="e_wo_entrp">    -77.55822092 </i>
    <i name="e_0_energy">    -77.57605468 </i>
   </energy>
  </scstep>
  <scstep>
   <time name="dav">    7.02    7.10</time>
   <time name="total">    7.57    7.66</time>
   <dipole>
    <v name="dipole">      0.00000000       0.00000000       0.00017261 </v>
    <i name="Tr[quadrupol]">   -557.63706637 </i>
    <i name="Echarged">      0.00000000 </i>
    <i name="Edipol_quadrupol">      0.00000000 </i>
    <i name="Eion">      0.00000000 </i>
   </dipole>
   <energy>
    <i name="e_fr_energy">    -77.58200257 </i>
    <i name="e_wo_entrp">    -77.55823966 </i>
    <i name="e_0_energy">    -77.57606184 </i>
   </energy>
  </scstep>
  <scstep>
   <time name="dav">    6.13    6.13</time>
   <time name="total">    6.16    6.17</time>
   <dipole>
    <v name="dipole">      0.00000000       0.00000000       0.00003898 </v>
    <i name="Tr[quadrupol]">   -557.63772619 </i>
    <i name="Echarged">      0.00000000 </i>
    <i name="Edipol_quadrupol">      0.00000000 </i>
    <i name="Eion">      0.00000000 </i>
   </dipole>
   <energy>
    <i name="alphaZ">    508.17595313 </i>
    <i name="ewald">  35045.61224051 </i>
    <i name="hartreedc"> -46695.66320921 </i>
    <i name="XCdc">    210.09035816 </i>
    <i name="pawpsdc">   9131.05669002 </i>
    <i name="pawaedc">  -9335.60744234 </i>
    <i name="eentropy">     -0.02376741 </i>
    <i name="bandstr">   -556.18584406 </i>
    <i name="atom">  11614.96301856 </i>
    <i name="e_fr_energy">    -77.58200263 </i>
    <i name="e_wo_entrp">    -77.55823522 </i>
    <i name="e_0_energy">    -77.57606078 </i>
   </energy>
  </scstep>
  <structure>
   <crystal>
    <varray name="basis" >
     <v>       4.88428255       0.00000000       0.00000000 </v>
     <v>       2.44214127       4.22991277       0.00000000 </v>
     <v>       0.00000000       0.00000000      22.10741862 </v>
    </varray>
    <i name="volume">    456.74123834 </i>
    <varray name="rec_basis" >
     <v>       0.20473836      -0.11820575       0.00000000 </v>
     <v>      -0.00000000       0.23641149       0.00000000 </v>
     <v>       0.00000000       0.00000000       0.04523368 </v>
    </varray>
   </crystal>
   <varray name="positions" >
    <v>       0.30286415       0.49410690       0.00209390 </v>
    <v>       0.63619748       0.82744023       0.00209390 </v>
    <v>       0.96953081       0.16077357       0.00209390 </v>
    <v>       0.63619748       0.49410690       0.10624323 </v>
    <v>       0.96953081       0.82744023       0.10624323 </v>
    <v>       0.30286415       0.16077357       0.10624323 </v>
    <v>       0.30286417       0.49414848       0.29504380 </v>
    <v>       0.63634129       0.82732252       0.29632126 </v>
    <v>       0.96943912       0.16076262       0.29512333 </v>
    <v>       0.96920404       0.49439981       0.20098539 </v>
    <v>       0.30312293       0.82749586       0.20098723 </v>
    <v>       0.63625340       0.16044214       0.20096569 </v>
    <v>       0.76661818       0.98956847       0.43485604 </v>
    <v>       0.64064276       0.81573345       0.40911334 </v>
    <v>       0.99218261       0.83028650       0.44135775 </v>
   </varray>
  </structure>
  <varray name="forces" >
   <v>       0.00127399      -0.00648251      -0.24760235 </v>
   <v>      -0.01581188       0.00371068      -0.40866424 </v>
   <v>       0.00674417       0.01080700      -0.25158010 </v>
   <v>       0.02295374       0.03249487       0.34034662 </v>
   <v>      -0.02880449      -0.01299533       0.33391627 </v>
   <v>       0.01512911      -0.02929646       0.33923774 </v>
   <v>       0.00624938       0.00789407      -0.10127331 </v>
   <v>       0.03552321      -0.01140915       1.14510539 </v>
   <v>      -0.01952984      -0.00285125      -0.03649494 </v>
   <v>      -0.06244802       0.08761379       0.02068159 </v>
   <v>       0.10285451       0.01178430       0.02521266 </v>
   <v>      -0.04230722      -0.09688993       0.00153070 </v>
   <v>      -0.06776942      -0.24917290      -0.11996225 </v>
   <v>       0.14930354       0.11663674      -0.96142923 </v>
   <v>      -0.10336076       0.13815610      -0.07902456 </v>
  </varray>
  <varray name="stress" >
   <v>     -56.13276730       0.05480050      -0.34946923 </v>
   <v>       0.05480052     -55.13000034      -0.07219530 </v>
   <v>      -0.34946921      -0.07219528      -7.27223944 </v>
  </varray>
  <energy>
   <i name="e_fr_energy">    -77.58200263 </i>
   <i name="e_wo_entrp">    -77.57606078 </i>
   <i name="e_0_energy">     -0.02376741 </i>
  </energy>
  <time name="totalsc">  195.62  195.92</time>
 </calculation>
 <calculation>
  <scstep>
   <time name="dav">    7.67    7.69</time>
   <time name="total">    8.23    8.24</time>
   <dipole>
    <v name="dipole">      0.00000000       0.00000000      -0.00007801 </v>
    <i name="Tr[quadrupol]">   -557.49525530 </i>
    <i name="Echarged">      0.00000000 </i>
    <i name="Edipol_quadrupol">      0.00000000 </i>
    <i name="Eion">      0.00000000 </i>
   </dipole>
   <energy>
    <i name="alphaZ">    508.17061241 </i>
    <i name="ewald">  35043.28729034 </i>
    <i name="hartreedc"> -46691.52920091 </i>
    <i name="XCdc">    210.17551912 </i>
    <i name="pawpsdc">   9131.05901708 </i>
    <i name="pawaedc">  -9335.60997837 </i>
    <i name="eentropy">     -0.02872969 </i>
    <i name="bandstr">   -558.08368523 </i>
    <i name="atom">  11614.96301856 </i>
    <i name="e_fr_energy">    -77.59613670 </i>
    <i name="e_wo_entrp">    -77.56740701 </i>
    <i name="e_0_energy">    -77.58895427 </i>
   </energy>
  </scstep>
  <scstep>
   <time name="dav">   12.07   12.19</time>
   <time name="total">   12.62   12.74</time>
   <dipole>
    <v name="dipole">      0.00000000       0.00000000      -0.12226843 </v>
    <i name="Tr[quadrupol]">   -557.63773599 </i>
    <i name="Echarged">      0.00000000 </i>
    <i name="Edipol_quadrupol">      0.00000000 </i>
    <i name="Eion">      0.00000000 </i>
   </dipole>
   <energy>
    <i name="e_fr_energy">    -78.52159990 </i>
    <i name="e_wo_entrp">    -78.50494807 </i>
    <i name="e_0_energy">    -78.51743694 </i>
   </energy>
  </scstep>
  <scstep>
   <time name="dav">   11.40   11.41</time>
   <time name="total">   11.95   11.96</time>
   <dipole>
    <v name="dipole">      0.00000000       0.00000000      -0.01878421 </v>
    <i name="Tr[quadrupol]">   -557.79363983 </i>
    <i name="Echarged">      0.00000000 </i>
    <i name="Edipol_quadrupol">      0.00000000 </i>
    <i name="Eion">      0.00000000 </i>
   </dipole>
   <energy>
    <i name="e_fr_energy">    -77.64822586 </i>
    <i name="e_wo_entrp">    -77.63523926 </i>
    <i name="e_0_energy">    -77.64497921 </i>
   </energy>
  </scstep>
  <scstep>
   <time name="dav">   10.32   10.33</time>
   <time name="total">   10.88   10.89</time>
   <dipole>
    <v name="dipole">      0.00000000       0.00000000      -0.02274615 </v>
    <i name="Tr[quadrupol]">   -557.58802362 </i>
    <i name="Echarged">      0.00000000 </i>
    <i name="Edipol_quadrupol">      0.00000000 </i>
    <i name="Eion">      0.00000000 </i>
   </dipole>
   <energy>
    <i name="e_fr_energy">    -77.60979142 </i>
    <i name="e_wo_entrp">    -77.58553046 </i>
    <i name="e_0_energy">    -77.60372618 </i>
   </energy>
  </scstep>
  <scstep>
   <time name="dav">   10.40   10.46</time>
   <time name="total">   10.95   11.02</time>
   <dipole>
    <v name="dipole">      0.00000000       0.00000000      -0.01924381 </v>
    <i name="Tr[quadrupol]">   -557.61627225 </i>
    <i name="Echarged">      0.00000000 </i>
    <i name="Edipol_quadrupol">      0.00000000 </i>
    <i name="Eion">      0.00000000 </i>
   </dipole>
   <energy>
    <i name="e_fr_energy">    -77.60909405 </i>
    <i name="e_wo_entrp">    -77.58302567 </i>
    <i name="e_0_energy">    -77.60257696 </i>
   </energy>
  </scstep>
  <scstep>
   <time name="dav">   10.09   10.10</time>
   <time name="total">   10.65   10.66</time>
   <dipole>
    <v name="dipole">      0.00000000       0.00000000      -0.01732122 </v>
    <i name="Tr[quadrupol]">   -557.59640666 </i>
    <i name="Echarged">      0.00000000 </i>
    <i name="Edipol_quadrupol">      0.00000000 </i>
    <i name="Eion">      0.00000000 </i>
   </dipole>
   <energy>
    <i name="e_fr_energy">    -77.60825730 </i>
    <i name="e_wo_entrp">    -77.58087261 </i>
    <i name="e_0_energy">    -77.60141113 </i>
   </energy>
  </scstep>
  <scstep>
   <time name="dav">   10.52   10.53</time>
   <time name="total">   11.08   11.12</time>
   <dipole>
    <v name="dipole">      0.00000000       0.00000000      -0.02333919 </v>
    <i name="Tr[quadrupol]">   -557.64291802 </i>
    <i name="Echarged">      0.00000000 </i>
    <i name="Edipol_quadrupol">      0.00000000 </i>
    <i name="Eion">      0.00000000 </i>
   </dipole>
   <energy>
    <i name="e_fr_energy">    -77.60852673 </i>
    <i name="e_wo_entrp">    -77.58325358 </i>
    <i name="e_0_energy">    -77.60220844 </i>
   </energy>
  </scstep>
  <scstep>
   <time name="dav">    9.10    9.11</time>
   <time name="total">    9.65    9.66</time>
   <dipole>
    <v name="dipole">      0.00000000       0.00000000      -0.02147066 </v>
    <i name="Tr[quadrupol]">   -557.63815208 </i>
    <i name="Echarged">      0.00000000 </i>
    <i name="Edipol_quadrupol">      0.00000000 </i>
    <i name="Eion">      0.00000000 </i>
   </dipole>
   <energy>
    <i name="e_fr_energy">    -77.60749420 </i>
    <i name="e_wo_entrp">    -77.58189180 </i>
    <i name="e_0_energy">    -77.60109360 </i>
   </energy>
  </scstep>
  <scstep>
   <time name="dav">    9.79    9.80</time>
   <time name="total">   10.35   10.36</time>
   <dipole>
    <v name="dipole">      0.00000000       0.00000000      -0.02024637 </v>
    <i name="Tr[quadrupol]">   -557.63896976 </i>
    <i name="Echarged">      0.00000000 </i>
    <i name="Edipol_quadrupol">      0.00000000 </i>
    <i name="Eion">      0.00000000 </i>
   </dipole>
   <energy>
    <i name="e_fr_energy">    -77.60738216 </i>
    <i name="e_wo_entrp">    -77.58157807 </i>
    <i name="e_0_energy">    -77.60093113 </i>
   </energy>
  </scstep>
  <scstep>
   <time name="dav">    8.86    8.92</time>
   <time name="total">    9.41    9.47</time>
   <dipole>
    <v name="dipole">      0.00000000       0.00000000      -0.02105564 </v>
    <i name="Tr[quadrupol]">   -557.64101307 </i>
    <i name="Echarged">      0.00000000 </i>
    <i name="Edipol_quadrupol">      0.00000000 </i>
    <i name="Eion">      0.00000000 </i>
   </dipole>
   <energy>
    <i name="e_fr_energy">    -77.60739050 </i>
    <i name="e_wo_entrp">    -77.58142165 </i>
    <i name="e_0_energy">    -77.60089829 </i>
   </energy>
  </scstep>
  <scstep>
   <time name="dav">    8.90    8.90</time>
[...]
       <r>   -5.2710    1.0000 </r>
       <r>   -5.1768    1.0000 </r>
       <r>   -4.8358    1.0000 </r>
       <r>   -4.7744    1.0000 </r>
       <r>   -4.6170    1.0000 </r>
       <r>   -4.5998    1.0000 </r>
       <r>   -4.5901    1.0000 </r>
       <r>   -4.3172    1.0000 </r>
       <r>   -4.2380    1.0000 </r>
       <r>   -4.1268    1.0000 </r>
       <r>   -3.9897    1.0000 </r>
       <r>   -3.9409    1.0000 </r>
       <r>   -3.7724    1.0000 </r>
       <r>   -3.7412    1.0000 </r>
       <r>   -3.6747    1.0000 </r>
       <r>   -3.6571    1.0000 </r>
       <r>   -3.5875    1.0000 </r>
       <r>   -3.4883    1.0000 </r>
       <r>   -3.4332    1.0000 </r>
       <r>   -3.3663    1.0000 </r>
       <r>   -3.1580    1.0000 </r>
       <r>   -3.1118    1.0000 </r>
       <r>   -3.0712    1.0000 </r>
       <r>   -3.0371    1.0000 </r>
       <r>   -2.9032    1.0000 </r>
       <r>   -2.8071    1.0000 </r>
       <r>   -2.7634    1.0000 </r>
       <r>   -2.6468    1.0000 </r>
       <r>   -2.6031    1.0000 </r>
       <r>   -2.4725    1.0000 </r>
       <r>   -2.4632    1.0000 </r>
       <r>   -2.3826    1.0000 </r>
       <r>   -2.3098    1.0000 </r>
       <r>   -2.1752    1.0000 </r>
       <r>   -2.1308    1.0000 </r>
       <r>   -2.0508    1.0000 </r>
       <r>   -1.8221    1.0000 </r>
       <r>   -1.7117    1.0000 </r>
       <r>   -1.7034    1.0000 </r>
       <r>   -1.6729    1.0000 </r>
       <r>   -1.6507    1.0000 </r>
       <r>   -1.4913    1.0000 </r>
       <r>   -1.4613    1.0000 </r>
       <r>   -1.3898    0.9999 </r>
       <r>   -1.3354    0.9997 </r>
       <r>   -1.1531    0.9952 </r>
       <r>   -1.1093    0.9959 </r>
       <r>   -1.0881    0.9980 </r>
       <r>   -1.0119    1.0204 </r>
       <r>   -1.0008    1.0255 </r>
       <r>   -0.9272    1.0516 </r>
       <r>   -0.7805    0.7304 </r>
       <r>   -0.5920   -0.0250 </r>
       <r>   -0.4202   -0.0060 </r>
       <r>   -0.3584    0.0042 </r>
       <r>   -0.3037    0.0045 </r>
       <r>   -0.0564    0.0000 </r>
       <r>    0.0999    0.0000 </r>
       <r>    0.2646    0.0000 </r>
       <r>    1.4074    0.0000 </r>
       <r>    2.3988    0.0000 </r>
       <r>    2.9329    0.0000 </r>
       <r>    3.1955    0.0000 </r>
       <r>    3.8483    0.0000 </r>
       <r>    4.7358    0.0000 </r>
       <r>    4.8214    0.0000 </r>
      </set>
     </set>
    </set>
   </array>
  </eigenvalues>
  <separator name="orbital magnetization" >
   <v name="MAGDIPOLOUT">      0.00000000      0.00000000      0.00000000</v>
  </separator>
  <dos>
   <i name="efermi">     -0.73516703 </i>
   <total>
    <array>
     <dimension dim="1">gridpoints</dimension>
     <dimension dim="2">spin</dimension>
     <field>energy</field>
     <field>total</field>
     <field>integrated</field>
     <set>
      <set comment="spin 1">
       <r>   -25.6418     0.0000     0.0000 </r>
       <r>   -25.5321     0.0000     0.0000 </r>
       <r>   -25.4223     0.0000     0.0000 </r>
       <r>   -25.3126     0.0000     0.0000 </r>
       <r>   -25.2028     0.0000     0.0000 </r>
       <r>   -25.0931     0.0000     0.0000 </r>
       <r>   -24.9833     0.0000     0.0000 </r>
       <r>   -24.8736     0.0000     0.0000 </r>
       <r>   -24.7639     0.0000     0.0000 </r>
       <r>   -24.6541     0.0000     0.0000 </r>
       <r>   -24.5444     0.0000     0.0000 </r>
       <r>   -24.4346     0.0000     0.0000 </r>
       <r>   -24.3249     0.0005     0.0001 </r>
       <r>   -24.2151     0.0082     0.0010 </r>
       <r>   -24.1054     0.0488     0.0063 </r>
       <r>   -23.9956    -0.0067     0.0056 </r>
       <r>   -23.8859    -0.6565    -0.0665 </r>
       <r>   -23.7761     0.2290    -0.0413 </r>
       <r>   -23.6664     6.6373     0.6871 </r>
       <r>   -23.5567     9.6547     1.7466 </r>
       <r>   -23.4469     3.2475     2.1030 </r>
       <r>   -23.3372    -0.7336     2.0225 </r>
       <r>   -23.2274    -0.2948     1.9902 </r>
       <r>   -23.1177     0.0615     1.9969 </r>
       <r>   -23.0079     0.0253     1.9997 </r>
       <r>   -22.8982     0.0026     2.0000 </r>
       <r>   -22.7884     0.0001     2.0000 </r>
       <r>   -22.6787     0.0000     2.0000 </r>
       <r>   -22.5689     0.0000     2.0000 </r>
       <r>   -22.4592     0.0000     2.0000 </r>
       <r>   -22.3495     0.0000     2.0000 </r>
       <r>   -22.2397     0.0000     2.0000 </r>
       <r>   -22.1300     0.0000     2.0000 </r>
       <r>   -22.0202     0.0000     2.0000 </r>
       <r>   -21.9105     0.0000     2.0000 </r>
       <r>   -21.8007     0.0000     2.0000 </r>
       <r>   -21.6910     0.0000     2.0000 </r>
       <r>   -21.5812     0.0000     2.0000 </r>
       <r>   -21.4715     0.0000     2.0000 </r>
       <r>   -21.3617     0.0000     2.0000 </r>
       <r>   -21.2520     0.0000     2.0000 </r>
       <r>   -21.1423     0.0000     2.0000 </r>
       <r>   -21.0325     0.0000     2.0000 </r>
       <r>   -20.9228     0.0000     2.0000 </r>
       <r>   -20.8130     0.0000     2.0000 </r>
       <r>   -20.7033     0.0000     2.0000 </r>
       <r>   -20.5935     0.0000     2.0000 </r>
       <r>   -20.4838     0.0000     2.0000 </r>
       <r>   -20.3740     0.0000     2.0000 </r>
       <r>   -20.2643     0.0000     2.0000 </r>
       <r>   -20.1545     0.0000     2.0000 </r>
       <r>   -20.0448     0.0000     2.0000 </r>
       <r>   -19.9350     0.0000     2.0000 </r>
       <r>   -19.8253     0.0000     2.0000 </r>
       <r>   -19.7156     0.0000     2.0000 </r>
       <r>   -19.6058     0.0000     2.0000 </r>
       <r>   -19.4961     0.0000     2.0000 </r>
       <r>   -19.3863     0.0000     2.0000 </r>
       <r>   -19.2766     0.0000     2.0000 </r>
       <r>   -19.1668     0.0000     2.0000 </r>
       <r>   -19.0571     0.0000     2.0000 </r>
       <r>   -18.9473     0.0000     2.0000 </r>
       <r>   -18.8376     0.0000     2.0000 </r>
       <r>   -18.7278     0.0000     2.0000 </r>
       <r>   -18.6181     0.0000     2.0000 </r>
       <r>   -18.5084     0.0000     2.0000 </r>
       <r>   -18.3986     0.0000     2.0000 </r>
       <r>   -18.2889     0.0000     2.0000 </r>
       <r>   -18.1791     0.0000     2.0000 </r>
       <r>   -18.0694     0.0000     2.0000 </r>
       <r>   -17.9596     0.0000     2.0000 </r>
       <r>   -17.8499     0.0000     2.0000 </r>
       <r>   -17.7401     0.0002     2.0000 </r>
       <r>   -17.6304     0.0034     2.0004 </r>
       <r>   -17.5206     0.0294     2.0036 </r>
       <r>   -17.4109     0.0546     2.0096 </r>
       <r>   -17.3012    -0.3619     1.9699 </r>
       <r>   -17.1914    -0.6192     1.9019 </r>
       <r>   -17.0817     3.8723     2.3269 </r>
       <r>   -16.9719     9.7877     3.4011 </r>
       <r>   -16.8622     5.9990     4.0594 </r>
       <r>   -16.7524    -0.0160     4.0577 </r>
       <r>   -16.6427    -0.5889     3.9930 </r>
       <r>   -16.5329     0.0119     3.9943 </r>
       <r>   -16.4232     0.0442     3.9992 </r>
       <r>   -16.3134     0.0069     4.0000 </r>
       <r>   -16.2037     0.0004     4.0000 </r>
       <r>   -16.0940     0.0000     4.0000 </r>
       <r>   -15.9842     0.0000     4.0000 </r>
       <r>   -15.8745     0.0000     4.0000 </r>
       <r>   -15.7647     0.0000     4.0000 </r>
       <r>   -15.6550     0.0000     4.0000 </r>
       <r>   -15.5452     0.0000     4.0000 </r>
       <r>   -15.4355     0.0000     4.0000 </r>
       <r>   -15.3257     0.0000     4.0000 </r>
       <r>   -15.2160     0.0000     4.0000 </r>
       <r>   -15.1062     0.0000     4.0000 </r>
       <r>   -14.9965     0.0000     4.0000 </r>
       <r>   -14.8868     0.0000     4.0000 </r>
       <r>   -14.7770     0.0000     4.0000 </r>
       <r>   -14.6673     0.0000     4.0000 </r>
       <r>   -14.5575     0.0000     4.0000 </r>
       <r>   -14.4478     0.0000     4.0000 </r>
       <r>   -14.3380     0.0000     4.0000 </r>
       <r>   -14.2283     0.0000     4.0000 </r>
       <r>   -14.1185     0.0000     4.0000 </r>
       <r>   -14.0088     0.0000     4.0000 </r>
       <r>   -13.8990     0.0000     4.0000 </r>
       <r>   -13.7893     0.0000     4.0000 </r>
       <r>   -13.6796     0.0000     4.0000 </r>
       <r>   -13.5698     0.0000     4.0000 </r>
       <r>   -13.4601     0.0000     4.0000 </r>
       <r>   -13.3503     0.0000     4.0000 </r>
       <r>   -13.2406     0.0000     4.0000 </r>
       <r>   -13.1308     0.0000     4.0000 </r>
       <r>   -13.0211     0.0000     4.0000 </r>
       <r>   -12.9113     0.0000     4.0000 </r>
       <r>   -12.8016     0.0000     4.0000 </r>
       <r>   -12.6918     0.0000     4.0000 </r>
       <r>   -12.5821     0.0000     4.0000 </r>
       <r>   -12.4723     0.0000     4.0000 </r>
       <r>   -12.3626     0.0000     4.0000 </r>
       <r>   -12.2529     0.0000     4.0000 </r>
       <r>   -12.1431     0.0000     4.0000 </r>
       <r>   -12.0334     0.0000     4.0000 </r>
       <r>   -11.9236     0.0000     4.0000 </r>
       <r>   -11.8139     0.0000     4.0000 </r>
       <r>   -11.7041     0.0000     4.0000 </r>
       <r>   -11.5944     0.0000     4.0000 </r>
       <r>   -11.4846     0.0000     4.0000 </r>
       <r>   -11.3749     0.0000     4.0000 </r>
       <r>   -11.2651     0.0000     4.0000 </r>
       <r>   -11.1554     0.0000     4.0000 </r>
       <r>   -11.0457     0.0000     4.0000 </r>
       <r>   -10.9359     0.0000     4.0000 </r>
       <r>   -10.8262     0.0000     4.0000 </r>
       <r>   -10.7164     0.0000     4.0000 </r>
       <r>   -10.6067     0.0000     4.0000 </r>
       <r>   -10.4969     0.0000     4.0000 </r>
       <r>   -10.3872     0.0000     4.0000 </r>
       <r>   -10.2774     0.0000     4.0000 </r>
       <r>   -10.1677     0.0000     4.0000 </r>
       <r>   -10.0579     0.0000     4.0000 </r>
       <r>    -9.9482     0.0002     4.0000 </r>
       <r>    -9.8385     0.0017     4.0002 </r>
       <r>    -9.7287     0.0028     4.0005 </r>
       <r>    -9.6190    -0.0167     3.9987 </r>
       <r>    -9.5092    -0.0189     3.9966 </r>
       <r>    -9.3995     0.2068     4.0193 </r>
       <r>    -9.2897     0.5380     4.0784 </r>
       <r>    -9.1800     0.3949     4.1217 </r>
       <r>    -9.0702     0.5693     4.1842 </r>
       <r>    -8.9605     4.5927     4.6882 </r>
       <r>    -8.8507     9.5255     5.7336 </r>
       <r>    -8.7410     6.2704     6.4217 </r>
       <r>    -8.6313     0.9168     6.5223 </r>
       <r>    -8.5215     0.5263     6.5801 </r>
       <r>    -8.4118     0.9921     6.6890 </r>
       <r>    -8.3020     0.7090     6.7668 </r>
       <r>    -8.1923     0.8369     6.8586 </r>
       <r>    -8.0825     1.2013     6.9905 </r>
       <r>    -7.9728     1.6347     7.1699 </r>
       <r>    -7.8630     2.0505     7.3949 </r>
       <r>    -7.7533     1.8399     7.5968 </r>
       <r>    -7.6435     1.5986     7.7723 </r>
       <r>    -7.5338     1.5904     7.9468 </r>
       <r>    -7.4241     1.8542     8.1503 </r>
       <r>    -7.3143     2.6490     8.4410 </r>
       <r>    -7.2046     3.0990     8.7811 </r>
       <r>    -7.0948     3.9461     9.2142 </r>
       <r>    -6.9851     5.6523     9.8345 </r>
       <r>    -6.8753     7.0953    10.6132 </r>
       <r>    -6.7656     9.6149    11.6684 </r>
       <r>    -6.6558     9.5998    12.7219 </r>
       <r>    -6.5461     6.7736    13.4653 </r>
       <r>    -6.4363     6.8865    14.2210 </r>
       <r>    -6.3266    11.7432    15.5098 </r>
       <r>    -6.2169    16.9165    17.3663 </r>
       <r>    -6.1071    16.4533    19.1720 </r>
       <r>    -5.9974    14.9175    20.8091 </r>
       <r>    -5.8876    16.4550    22.6150 </r>
       <r>    -5.7779    17.1561    24.4978 </r>
       <r>    -5.6681    15.3978    26.1876 </r>
       <r>    -5.5584    13.7039    27.6916 </r>
       <r>    -5.4486    13.5179    29.1751 </r>
       <r>    -5.3389    12.7581    30.5752 </r>
       <r>    -5.2291    12.3310    31.9285 </r>
       <r>    -5.1194    14.2485    33.4922 </r>
       <r>    -5.0097    15.2461    35.1654 </r>
       <r>    -4.8999    13.7660    36.6762 </r>
       <r>    -4.7902    10.6193    37.8416 </r>
       <r>    -4.6804    10.9056    39.0384 </r>
       <r>    -4.5707    18.4997    41.0687 </r>
       <r>    -4.4609    20.8629    43.3583 </r>
       <r>    -4.3512    14.7552    44.9776 </r>
       <r>    -4.2414    16.1603    46.7512 </r>
       <r>    -4.1317    22.4618    49.2162 </r>
       <r>    -4.0219    24.3907    51.8930 </r>
       <r>    -3.9122    24.7451    54.6087 </r>
       <r>    -3.8024    25.4374    57.4003 </r>
       <r>    -3.6927    26.6099    60.3206 </r>
       <r>    -3.5830    29.1331    63.5179 </r>
       <r>    -3.4732    30.1041    66.8217 </r>
       <r>    -3.3635    28.0256    69.8973 </r>
       <r>    -3.2537    27.6338    72.9300 </r>
       <r>    -3.1440    31.3454    76.3701 </r>
       <r>    -3.0342    33.0018    79.9919 </r>
       <r>    -2.9245    28.3599    83.1042 </r>
       <r>    -2.8147    22.6436    85.5893 </r>
       <r>    -2.7050    19.8019    87.7624 </r>
       <r>    -2.5952    22.3904    90.2197 </r>
       <r>    -2.4855    29.1324    93.4169 </r>
       <r>    -2.3758    31.8066    96.9075 </r>
       <r>    -2.2660    29.6939   100.1663 </r>
       <r>    -2.1563    27.3053   103.1629 </r>
       <r>    -2.0465    24.3464   105.8348 </r>
       <r>    -1.9368    21.9892   108.2480 </r>
       <r>    -1.8270    24.4466   110.9309 </r>
       <r>    -1.7173    28.2969   114.0364 </r>
       <r>    -1.6075    27.9478   117.1035 </r>
       <r>    -1.4978    25.7178   119.9260 </r>
       <r>    -1.3880    23.2620   122.4789 </r>
       <r>    -1.2783    19.4121   124.6093 </r>
       <r>    -1.1686    18.7843   126.6707 </r>
       <r>    -1.0588    21.2408   129.0018 </r>
       <r>    -0.9491    20.0939   131.2070 </r>
       <r>    -0.8393    21.0563   133.5179 </r>
       <r>    -0.7296    23.7639   136.1259 </r>
       <r>    -0.6198    17.6887   138.0671 </r>
       <r>    -0.5101     9.0949   139.0652 </r>
       <r>    -0.4003     7.3760   139.8747 </r>
       <r>    -0.2906     9.1070   140.8742 </r>
       <r>    -0.1808     8.1442   141.7680 </r>
       <r>    -0.0711     5.3525   142.3554 </r>
       <r>     0.0386     3.6214   142.7528 </r>
       <r>     0.1484     3.3125   143.1163 </r>
       <r>     0.2581     3.6144   143.5130 </r>
       <r>     0.3679     3.7622   143.9259 </r>
       <r>     0.4776     3.9353   144.3578 </r>
       <r>     0.5874     4.1364   144.8117 </r>
       <r>     0.6971     4.3489   145.2890 </r>
       <r>     0.8069     4.2817   145.7589 </r>
       <r>     0.9166     3.3589   146.1275 </r>
       <r>     1.0264     3.2741   146.4868 </r>
       <r>     1.1361     4.4810   146.9786 </r>
       <r>     1.2458     4.5140   147.4740 </r>
       <r>     1.3556     4.1375   147.9281 </r>
       <r>     1.4653     3.4222   148.3036 </r>
       <r>     1.5751     3.0089   148.6338 </r>
       <r>     1.6848     3.5195   149.0201 </r>
       <r>     1.7946     3.4176   149.3952 </r>
       <r>     1.9043     3.2800   149.7551 </r>
       <r>     2.0141     3.8564   150.1784 </r>
       <r>     2.1238     4.7921   150.7043 </r>
       <r>     2.2336     5.1633   151.2709 </r>
       <r>     2.3433     4.4876   151.7634 </r>
       <r>     2.4530     3.4835   152.1457 </r>
       <r>     2.5628     2.8275   152.4560 </r>
       <r>     2.6725     3.0915   152.7953 </r>
       <r>     2.7823     3.3048   153.1580 </r>
       <r>     2.8920     2.8149   153.4669 </r>
       <r>     3.0018     3.7845   153.8822 </r>
       <r>     3.1115     5.4556   154.4810 </r>
       <r>     3.2213     5.8329   155.1211 </r>
       <r>     3.3310     5.0356   155.6737 </r>
       <r>     3.4408     4.7805   156.1984 </r>
       <r>     3.5505     4.7231   156.7167 </r>
       <r>     3.6602     4.4710   157.2074 </r>
       <r>     3.7700     5.9258   157.8577 </r>
       <r>     3.8797     6.7198   158.5952 </r>
       <r>     3.9895     5.1687   159.1624 </r>
       <r>     4.0992     3.4631   159.5425 </r>
       <r>     4.2090     2.6383   159.8320 </r>
       <r>     4.3187     2.9106   160.1514 </r>
       <r>     4.4285     3.6088   160.5475 </r>
       <r>     4.5382     4.2261   161.0113 </r>
       <r>     4.6480     5.0380   161.5642 </r>
       <r>     4.7577     6.2597   162.2511 </r>
       <r>     4.8675     6.8090   162.9984 </r>
       <r>     4.9772     5.1936   163.5684 </r>
       <r>     5.0869     2.4596   163.8383 </r>
       <r>     5.1967     0.8700   163.9338 </r>
       <r>     5.3064     0.4630   163.9846 </r>
       <r>     5.4162     0.1644   164.0026 </r>
       <r>     5.5259    -0.0174   164.0007 </r>
       <r>     5.6357    -0.0121   163.9994 </r>
       <r>     5.7454     0.0036   163.9998 </r>
       <r>     5.8552     0.0017   164.0000 </r>
       <r>     5.9649     0.0002   164.0000 </r>
       <r>     6.0747     0.0000   164.0000 </r>
       <r>     6.1844     0.0000   164.0000 </r>
       <r>     6.2941     0.0000   164.0000 </r>
       <r>     6.4039     0.0000   164.0000 </r>
       <r>     6.5136     0.0000   164.0000 </r>
       <r>     6.6234     0.0000   164.0000 </r>
       <r>     6.7331     0.0000   164.0000 </r>
       <r>     6.8429     0.0000   164.0000 </r>
       <r>     6.9526     0.0000   164.0000 </r>
       <r>     7.0624     0.0000   164.0000 </r>
       <r>     7.1721     0.0000   164.0000 </r>
       <r>     7.2819     0.0000   164.0000 </r>
      </set>
     </set>
    </array>
   </total>
  </dos>
 </calculation>
 <structure name="finalpos" >
  <crystal>
   <varray name="basis" >
    <v>       4.88428255       0.00000000       0.00000000 </v>
    <v>       2.44214127       4.22991277       0.00000000 </v>
    <v>       0.00000000       0.00000000      22.10741862 </v>
   </varray>
   <i name="volume">    456.74123834 </i>
   <varray name="rec_basis" >
    <v>       0.20473836      -0.11820575       0.00000000 </v>
    <v>      -0.00000000       0.23641149       0.00000000 </v>
    <v>       0.00000000       0.00000000       0.04523368 </v>
   </varray>
  </crystal>
  <varray name="positions" >
   <v>       0.30286415       0.49410690       0.00209390 </v>
   <v>       0.63619748       0.82744023       0.00209390 </v>
   <v>       0.96953081       0.16077357       0.00209390 </v>
   <v>       0.63619748       0.49410690       0.10624323 </v>
   <v>       0.96953081       0.82744023       0.10624323 </v>
   <v>       0.30286415       0.16077357       0.10624323 </v>
   <v>       0.30455100       0.49242996       0.29255144 </v>
   <v>       0.63781029       0.82529310       0.29911264 </v>
   <v>       0.96843725       0.15841469       0.29366710 </v>
   <v>       0.95791013       0.50227236       0.20088134 </v>
   <v>       0.31232344       0.82991228       0.20081065 </v>
   <v>       0.63811904       0.14827058       0.20044336 </v>
   <v>       0.76236456       0.99499794       0.41830995 </v>
   <v>       0.64382860       0.80832791       0.39169500 </v>
   <v>       0.98888739       0.84038175       0.42353563 </v>
  </varray>
  <varray name="selective"  type="logical" >
   <v type="logical" >  F  F  F </v>
   <v type="logical" >  F  F  F </v>
   <v type="logical" >  F  F  F </v>
   <v type="logical" >  F  F  F </v>
   <v type="logical" >  F  F  F </v>
   <v type="logical" >  F  F  F </v>
   <v type="logical" >  T  T  T </v>
   <v type="logical" >  T  T  T </v>
   <v type="logical" >  T  T  T </v>
   <v type="logical" >  T  T  T </v>
   <v type="logical" >  T  T  T </v>
   <v type="logical" >  T  T  T </v>
   <v type="logical" >  T  T  T </v>
   <v type="logical" >  T  T  T </v>
   <v type="logical" >  T  T  T </v>
  </varray>
  <nose>
   <v>      -3.00000000       0.00000000       0.00010000       0.00010000 </v>
  </nose>
 </structure>
</modeling>
