<?xml version="1.0" encoding="ISO-8859-1"?>
<modeling>
 <generator>
  <i name="program" type="string">vasp </i>
  <i name="version" type="string">5.4.4.18Apr17-6-g9f103f2a35  </i>
  <i name="subversion" type="string">(build Apr 23 2019 15:17:44) complex            parallel </i>
  <i name="platform" type="string">MareNostrum4 </i>
  <i name="date" type="string">2019 05 10 </i>
  <i name="time" type="string">04:00:12 </i>
 </generator>
 <incar>
  <i type="int" name="ISTART">     0</i>
  <i type="string" name="PREC">normal</i>
  <i type="string" name="ALGO"> NORMAL</i>
  <i type="int" name="ICHARG">     2</i>
  <i type="int" name="INIWAV">     1</i>
  <i type="int" name="NELMIN">     8</i>
  <i type="int" name="IBRION">     2</i>
  <i name="EDIFF">      0.00000100</i>
  <i name="EDIFFG">     -0.01000000</i>
  <i type="int" name="NSW">  1500</i>
  <i name="ENCUT">    450.00000000</i>
  <i name="POTIM">      0.20000000</i>
  <i type="int" name="ISMEAR">     2</i>
  <i name="SIGMA">      0.20000000</i>
  <i type="logical" name="LWAVE"> F  </i>
  <i type="logical" name="LCHARG"> T  </i>
  <v type="int" name="KPOINT_BSE">    -1     0     0     0</v>
  <i type="string" name="GGA"> 91</i>
  <i type="logical" name="LDIPOL"> T  </i>
  <i type="int" name="IDIPOL">     3</i>
 </incar>
 <structure name="primitive_cell" >
  <crystal>
   <varray name="basis" >
    <v>       4.88428255       0.00000000       0.00000000 </v>
    <v>       2.44214127       4.22991277       0.00000000 </v>
    <v>       0.00000000       0.00000000      22.10741862 </v>
   </varray>
   <i name="volume">    456.74123834 </i>
   <varray name="rec_basis" >
    <v>       0.20473836      -0.11820575       0.00000000 </v>
    <v>      -0.00000000       0.23641149       0.00000000 </v>
    <v>       0.00000000       0.00000000       0.04523368 </v>
   </varray>
  </crystal>
  <varray name="positions" >
   <v>       0.30286415       0.49410690       0.00209390 </v>
   <v>      -0.36380252       0.49410690       0.10624323 </v>
   <v>      -0.03046919      -0.17255977       0.10624323 </v>
   <v>      -0.36380252      -0.17255977       0.00209390 </v>
   <v>      -0.03046919       0.16077357       0.00209390 </v>
   <v>       0.30286415       0.16077357       0.10624323 </v>
   <v>      -0.03046919       0.49410690       0.21557020 </v>
   <v>       0.30286415      -0.17255977       0.21557020 </v>
   <v>      -0.36380252       0.16077357       0.21557020 </v>
   <v>       0.30286415       0.49410690       0.32458849 </v>
   <v>      -0.36380252      -0.17255977       0.32458849 </v>
   <v>      -0.03046919       0.16077357       0.32458849 </v>
   <v>      -0.36147278      -0.18720688       0.40965579 </v>
   <v>      -0.00774698      -0.16987484       0.44138925 </v>
   <v>      -0.23128870      -0.00740884       0.43532491 </v>
  </varray>
 </structure>
 <varray name="primitive_index" >
  <v type="int" >        1 </v>
  <v type="int" >        4 </v>
  <v type="int" >        5 </v>
  <v type="int" >        2 </v>
  <v type="int" >        3 </v>
  <v type="int" >        6 </v>
  <v type="int" >       10 </v>
  <v type="int" >       11 </v>
  <v type="int" >       12 </v>
  <v type="int" >        7 </v>
  <v type="int" >        8 </v>
  <v type="int" >        9 </v>
  <v type="int" >       14 </v>
  <v type="int" >       15 </v>
  <v type="int" >       13 </v>
 </varray>
 <kpoints>
  <generation param="Monkhorst-Pack">
   <v type="int" name="divisions">       8        8        1 </v>
   <v name="usershift">      0.00000000       0.00000000       0.00000000 </v>
   <v name="genvec1">      0.12500000      -0.00000000       0.00000000 </v>
   <v name="genvec2">      0.00000000       0.12500000       0.00000000 </v>
   <v name="genvec3">      0.00000000       0.00000000       1.00000000 </v>
   <v name="shift">      0.50000000       0.50000000       0.00000000 </v>
  </generation>
  <varray name="kpointlist" >
   <v>       0.06250000       0.06250000       0.00000000 </v>
   <v>       0.00000000       0.06250000       0.00000000 </v>
   <v>      -0.06250000       0.00000000       0.00000000 </v>
   <v>       0.18750000       0.06250000       0.00000000 </v>
   <v>       0.12500000       0.18750000       0.00000000 </v>
   <v>      -0.06250000       0.12500000       0.00000000 </v>
   <v>       0.12500000      -0.06250000       0.00000000 </v>
   <v>      -0.06250000      -0.18750000       0.00000000 </v>
   <v>      -0.18750000      -0.12500000       0.00000000 </v>
   <v>       0.31250000       0.06250000       0.00000000 </v>
   <v>       0.25000000       0.31250000       0.00000000 </v>
   <v>      -0.06250000       0.25000000       0.00000000 </v>
   <v>       0.25000000      -0.06250000       0.00000000 </v>
   <v>      -0.06250000      -0.31250000       0.00000000 </v>
   <v>      -0.31250000      -0.25000000       0.00000000 </v>
   <v>       0.43750000       0.06250000       0.00000000 </v>
   <v>       0.37500000       0.43750000       0.00000000 </v>
   <v>      -0.06250000       0.37500000       0.00000000 </v>
   <v>       0.37500000      -0.06250000       0.00000000 </v>
   <v>      -0.06250000      -0.43750000       0.00000000 </v>
   <v>      -0.43750000      -0.37500000       0.00000000 </v>
   <v>      -0.43750000       0.06250000       0.00000000 </v>
   <v>       0.50000000      -0.43750000       0.00000000 </v>
   <v>      -0.06250000       0.50000000       0.00000000 </v>
   <v>       0.50000000      -0.06250000       0.00000000 </v>
   <v>      -0.06250000       0.43750000       0.00000000 </v>
   <v>       0.43750000       0.50000000       0.00000000 </v>
   <v>      -0.31250000       0.06250000       0.00000000 </v>
   <v>      -0.37500000      -0.31250000       0.00000000 </v>
   <v>      -0.06250000      -0.37500000       0.00000000 </v>
   <v>      -0.37500000      -0.06250000       0.00000000 </v>
   <v>      -0.06250000       0.31250000       0.00000000 </v>
   <v>       0.31250000       0.37500000       0.00000000 </v>
   <v>      -0.18750000       0.06250000       0.00000000 </v>
   <v>      -0.25000000      -0.18750000       0.00000000 </v>
   <v>      -0.06250000      -0.25000000       0.00000000 </v>
   <v>      -0.25000000      -0.06250000       0.00000000 </v>
   <v>      -0.06250000       0.18750000       0.00000000 </v>
   <v>       0.18750000       0.25000000       0.00000000 </v>
   <v>      -0.06250000       0.06250000       0.00000000 </v>
   <v>      -0.12500000      -0.06250000       0.00000000 </v>
   <v>      -0.06250000      -0.12500000       0.00000000 </v>
   <v>       0.18750000       0.18750000       0.00000000 </v>
   <v>      -0.00000000       0.18750000       0.00000000 </v>
   <v>      -0.18750000       0.00000000       0.00000000 </v>
   <v>       0.31250000       0.18750000       0.00000000 </v>
   <v>       0.12500000       0.31250000       0.00000000 </v>
   <v>      -0.18750000       0.12500000       0.00000000 </v>
   <v>       0.12500000      -0.18750000       0.00000000 </v>
   <v>      -0.18750000      -0.31250000       0.00000000 </v>
   <v>      -0.31250000      -0.12500000       0.00000000 </v>
   <v>       0.43750000       0.18750000       0.00000000 </v>
   <v>       0.25000000       0.43750000       0.00000000 </v>
   <v>      -0.18750000       0.25000000       0.00000000 </v>
   <v>       0.25000000      -0.18750000       0.00000000 </v>
   <v>      -0.18750000      -0.43750000       0.00000000 </v>
   <v>      -0.43750000      -0.25000000       0.00000000 </v>
   <v>      -0.43750000       0.18750000       0.00000000 </v>
   <v>       0.37500000      -0.43750000       0.00000000 </v>
   <v>      -0.18750000       0.37500000       0.00000000 </v>
   <v>       0.37500000      -0.18750000       0.00000000 </v>
   <v>      -0.18750000       0.43750000       0.00000000 </v>
   <v>       0.43750000      -0.37500000       0.00000000 </v>
   <v>      -0.31250000       0.18750000       0.00000000 </v>
   <v>       0.50000000      -0.31250000       0.00000000 </v>
   <v>      -0.18750000       0.50000000       0.00000000 </v>
   <v>       0.50000000      -0.18750000       0.00000000 </v>
   <v>      -0.18750000       0.31250000       0.00000000 </v>
   <v>       0.31250000       0.50000000       0.00000000 </v>
   <v>      -0.18750000       0.18750000       0.00000000 </v>
   <v>      -0.37500000      -0.18750000       0.00000000 </v>
   <v>      -0.18750000      -0.37500000       0.00000000 </v>
   <v>       0.31250000       0.31250000       0.00000000 </v>
   <v>      -0.00000000       0.31250000       0.00000000 </v>
   <v>      -0.31250000       0.00000000       0.00000000 </v>
   <v>       0.43750000       0.31250000       0.00000000 </v>
   <v>       0.12500000       0.43750000       0.00000000 </v>
   <v>      -0.31250000       0.12500000       0.00000000 </v>
   <v>       0.12500000      -0.31250000       0.00000000 </v>
   <v>      -0.31250000      -0.43750000       0.00000000 </v>
   <v>      -0.43750000      -0.12500000       0.00000000 </v>
   <v>      -0.43750000       0.31250000       0.00000000 </v>
   <v>       0.25000000      -0.43750000       0.00000000 </v>
   <v>      -0.31250000       0.25000000       0.00000000 </v>
   <v>       0.25000000      -0.31250000       0.00000000 </v>
   <v>      -0.31250000       0.43750000       0.00000000 </v>
   <v>       0.43750000      -0.25000000       0.00000000 </v>
   <v>      -0.31250000       0.31250000       0.00000000 </v>
   <v>       0.37500000      -0.31250000       0.00000000 </v>
   <v>      -0.31250000       0.37500000       0.00000000 </v>
   <v>       0.43750000       0.43750000       0.00000000 </v>
   <v>       0.00000000       0.43750000       0.00000000 </v>
   <v>      -0.43750000       0.00000000       0.00000000 </v>
   <v>      -0.43750000       0.43750000       0.00000000 </v>
   <v>       0.12500000      -0.43750000       0.00000000 </v>
   <v>      -0.43750000       0.12500000       0.00000000 </v>
  </varray>
  <varray name="weights" >
   <v>       0.01041667 </v>
   <v>       0.01041667 </v>
   <v>       0.01041667 </v>
   <v>       0.01041667 </v>
   <v>       0.01041667 </v>
   <v>       0.01041667 </v>
   <v>       0.01041667 </v>
   <v>       0.01041667 </v>
   <v>       0.01041667 </v>
   <v>       0.01041667 </v>
   <v>       0.01041667 </v>
   <v>       0.01041667 </v>
   <v>       0.01041667 </v>
   <v>       0.01041667 </v>
   <v>       0.01041667 </v>
   <v>       0.01041667 </v>
   <v>       0.01041667 </v>
   <v>       0.01041667 </v>
   <v>       0.01041667 </v>
   <v>       0.01041667 </v>
   <v>       0.01041667 </v>
   <v>       0.01041667 </v>
   <v>       0.01041667 </v>
   <v>       0.01041667 </v>
   <v>       0.01041667 </v>
   <v>       0.01041667 </v>
   <v>       0.01041667 </v>
   <v>       0.01041667 </v>
   <v>       0.01041667 </v>
   <v>       0.01041667 </v>
   <v>       0.01041667 </v>
   <v>       0.01041667 </v>
   <v>       0.01041667 </v>
   <v>       0.01041667 </v>
   <v>       0.01041667 </v>
   <v>       0.01041667 </v>
   <v>       0.01041667 </v>
   <v>       0.01041667 </v>
   <v>       0.01041667 </v>
   <v>       0.01041667 </v>
   <v>       0.01041667 </v>
   <v>       0.01041667 </v>
   <v>       0.01041667 </v>
   <v>       0.01041667 </v>
   <v>       0.01041667 </v>
   <v>       0.01041667 </v>
   <v>       0.01041667 </v>
   <v>       0.01041667 </v>
   <v>       0.01041667 </v>
   <v>       0.01041667 </v>
   <v>       0.01041667 </v>
   <v>       0.01041667 </v>
   <v>       0.01041667 </v>
   <v>       0.01041667 </v>
   <v>       0.01041667 </v>
   <v>       0.01041667 </v>
   <v>       0.01041667 </v>
   <v>       0.01041667 </v>
   <v>       0.01041667 </v>
   <v>       0.01041667 </v>
   <v>       0.01041667 </v>
   <v>       0.01041667 </v>
   <v>       0.01041667 </v>
   <v>       0.01041667 </v>
   <v>       0.01041667 </v>
   <v>       0.01041667 </v>
   <v>       0.01041667 </v>
   <v>       0.01041667 </v>
   <v>       0.01041667 </v>
   <v>       0.01041667 </v>
   <v>       0.01041667 </v>
   <v>       0.01041667 </v>
   <v>       0.01041667 </v>
   <v>       0.01041667 </v>
   <v>       0.01041667 </v>
   <v>       0.01041667 </v>
   <v>       0.01041667 </v>
   <v>       0.01041667 </v>
   <v>       0.01041667 </v>
   <v>       0.01041667 </v>
   <v>       0.01041667 </v>
   <v>       0.01041667 </v>
   <v>       0.01041667 </v>
   <v>       0.01041667 </v>
   <v>       0.01041667 </v>
   <v>       0.01041667 </v>
   <v>       0.01041667 </v>
   <v>       0.01041667 </v>
   <v>       0.01041667 </v>
   <v>       0.01041667 </v>
   <v>       0.01041667 </v>
   <v>       0.01041667 </v>
   <v>       0.01041667 </v>
   <v>       0.01041667 </v>
   <v>       0.01041667 </v>
   <v>       0.01041667 </v>
  </varray>
 </kpoints>
 <parameters>
  <separator name="general" >
   <i type="string" name="SYSTEM">unknown system</i>
   <i type="logical" name="LCOMPAT"> F  </i>
  </separator>
  <separator name="electronic" >
   <i type="string" name="PREC">normal</i>
   <i name="ENMAX">    450.00000000</i>
   <i name="ENAUG">    605.39200000</i>
   <i name="EDIFF">      0.00000100</i>
   <i type="int" name="IALGO">    38</i>
   <i type="int" name="IWAVPR">    11</i>
   <i type="int" name="NBANDS">    82</i>
   <i name="NELECT">    136.00000000</i>
   <i type="int" name="TURBO">     0</i>
   <i type="int" name="IRESTART">     0</i>
   <i type="int" name="NREBOOT">     0</i>
   <i type="int" name="NMIN">     0</i>
   <i name="EREF">      0.00000000</i>
   <separator name="electronic smearing" >
    <i type="int" name="ISMEAR">     2</i>
    <i name="SIGMA">      0.20000000</i>
    <i name="KSPACING">      0.50000000</i>
    <i type="logical" name="KGAMMA"> T  </i>
   </separator>
   <separator name="electronic projectors" >
    <i type="logical" name="LREAL"> F  </i>
    <v name="ROPT">      0.00000000      0.00000000      0.00000000      0.00000000</v>
    <i type="int" name="LMAXPAW">  -100</i>
    <i type="int" name="LMAXMIX">     2</i>
    <i type="logical" name="NLSPLINE"> F  </i>
   </separator>
   <separator name="electronic startup" >
    <i type="int" name="ISTART">     0</i>
    <i type="int" name="ICHARG">     2</i>
    <i type="int" name="INIWAV">     1</i>
   </separator>
   <separator name="electronic spin" >
    <i type="int" name="ISPIN">     1</i>
    <i type="logical" name="LNONCOLLINEAR"> F  </i>
    <v name="MAGMOM">      1.00000000      1.00000000      1.00000000      1.00000000      1.00000000      1.00000000      1.00000000      1.00000000      1.00000000      1.00000000      1.00000000      1.00000000      1.00000000      1.00000000      1.00000000</v>
    <i name="NUPDOWN">     -1.00000000</i>
    <i type="logical" name="LSORBIT"> F  </i>
    <v name="SAXIS">      0.00000000      0.00000000      1.00000000</v>
    <i type="logical" name="LSPIRAL"> F  </i>
    <v name="QSPIRAL">      0.00000000      0.00000000      0.00000000</v>
    <i type="logical" name="LZEROZ"> F  </i>
   </separator>
   <separator name="electronic exchange-correlation" >
    <i type="logical" name="LASPH"> F  </i>
    <i type="logical" name="LMETAGGA"> F  </i>
   </separator>
   <separator name="electronic convergence" >
    <i type="int" name="NELM">    60</i>
    <i type="int" name="NELMDL">    -5</i>
    <i type="int" name="NELMIN">     8</i>
    <i name="ENINI">    450.00000000</i>
    <separator name="electronic convergence detail" >
     <i type="logical" name="LDIAG"> T  </i>
     <i type="logical" name="LSUBROT"> F  </i>
     <i name="WEIMIN">      0.00100000</i>
     <i name="EBREAK">      0.00000000</i>
     <i name="DEPER">      0.30000000</i>
     <i type="int" name="NRMM">     4</i>
     <i name="TIME">      0.40000000</i>
    </separator>
   </separator>
   <separator name="electronic mixer" >
    <i name="AMIX">      0.40000000</i>
    <i name="BMIX">      1.00000000</i>
    <i name="AMIN">      0.10000000</i>
    <i name="AMIX_MAG">      1.60000000</i>
    <i name="BMIX_MAG">      1.00000000</i>
    <separator name="electronic mixer details" >
     <i type="int" name="IMIX">     4</i>
     <i type="logical" name="MIXFIRST"> F  </i>
     <i type="int" name="MAXMIX">   -45</i>
     <i name="WC">    100.00000000</i>
     <i type="int" name="INIMIX">     1</i>
     <i type="int" name="MIXPRE">     1</i>
     <i type="int" name="MREMOVE">     5</i>
    </separator>
   </separator>
   <separator name="electronic dipolcorrection" >
    <i type="logical" name="LDIPOL"> T  </i>
    <i type="logical" name="LMONO"> F  </i>
    <i type="int" name="IDIPOL">     3</i>
    <i name="EPSILON">      1.00000000</i>
    <v name="DIPOL">   -100.00000000   -100.00000000   -100.00000000</v>
    <i name="EFIELD">      0.00000000</i>
   </separator>
  </separator>
  <separator name="grids" >
   <i type="int" name="NGX">    28</i>
   <i type="int" name="NGY">    28</i>
   <i type="int" name="NGZ">   120</i>
   <i type="int" name="NGXF">    56</i>
   <i type="int" name="NGYF">    56</i>
   <i type="int" name="NGZF">   240</i>
   <i type="logical" name="ADDGRID"> F  </i>
  </separator>
  <separator name="ionic" >
   <i type="int" name="NSW">  1500</i>
   <i type="int" name="IBRION">     2</i>
   <i type="int" name="MDALGO">     0</i>
   <i type="int" name="ISIF">     2</i>
   <i name="PSTRESS">      0.00000000</i>
   <i name="EDIFFG">     -0.01000000</i>
   <i type="int" name="NFREE">     1</i>
   <i name="POTIM">      0.20000000</i>
   <i name="SMASS">     -3.00000000</i>
   <i name="SCALEE">      1.00000000</i>
  </separator>
  <separator name="ionic md" >
   <i name="TEBEG">      0.00010000</i>
   <i name="TEEND">      0.00010000</i>
   <i type="int" name="NBLOCK">     1</i>
   <i type="int" name="KBLOCK">  1500</i>
   <i type="int" name="NPACO">   256</i>
   <i name="APACO">     16.00000000</i>
  </separator>
  <separator name="symmetry" >
   <i type="int" name="ISYM">     2</i>
   <i name="SYMPREC">      0.00001000</i>
  </separator>
  <separator name="dos" >
   <i type="int" name="LORBIT">     0</i>
   <v name="RWIGS">     -1.00000000     -1.00000000     -1.00000000     -1.00000000</v>
   <i type="int" name="NEDOS">   301</i>
   <i name="EMIN">     10.00000000</i>
   <i name="EMAX">    -10.00000000</i>
   <i name="EFERMI">      0.00000000</i>
  </separator>
  <separator name="writing" >
   <i type="int" name="NWRITE">     2</i>
   <i type="logical" name="LWAVE"> F  </i>
   <i type="logical" name="LDOWNSAMPLE"> F  </i>
   <i type="logical" name="LCHARG"> T  </i>
   <i type="logical" name="LPARD"> F  </i>
   <i type="logical" name="LVTOT"> F  </i>
   <i type="logical" name="LVHAR"> F  </i>
   <i type="logical" name="LELF"> F  </i>
   <i type="logical" name="LOPTICS"> F  </i>
   <v name="STM">      0.00000000      0.00000000      0.00000000      0.00000000      0.00000000      0.00000000      0.00000000</v>
  </separator>
  <separator name="performance" >
   <i type="int" name="NPAR">     2</i>
   <i type="int" name="NSIM">     4</i>
   <i type="int" name="NBLK">    -1</i>
   <i type="logical" name="LPLANE"> T  </i>
   <i type="logical" name="LSCALAPACK"> T  </i>
   <i type="logical" name="LSCAAWARE"> F  </i>
   <i type="logical" name="LSCALU"> F  </i>
   <i type="logical" name="LASYNC"> F  </i>
   <i type="logical" name="LORBITALREAL"> F  </i>
  </separator>
  <separator name="miscellaneous" >
   <i type="int" name="IDIOT">     3</i>
   <i type="int" name="ISPECIAL">     0</i>
   <i type="logical" name="LMUSIC"> F  </i>
   <v name="POMASS">    195.08000000    196.96600000     16.00000000      1.00000000</v>
   <v name="DARWINR">      0.00000000      0.00000000      0.00000000      0.00000000</v>
   <v name="DARWINV">      1.00000000      1.00000000      1.00000000      1.00000000</v>
   <i type="logical" name="LCORR"> T  </i>
  </separator>
  <i type="logical" name="GGA_COMPAT"> T  </i>
  <i type="logical" name="LBERRY"> F  </i>
  <i type="int" name="ICORELEVEL">     0</i>
  <i type="logical" name="LDAU"> F  </i>
  <i type="int" name="I_CONSTRAINED_M">     0</i>
  <separator name="electronic exchange-correlation" >
   <i type="string" name="GGA">91</i>
   <i type="int" name="VOSKOWN">     0</i>
   <i type="logical" name="LHFCALC"> F  </i>
   <i type="string" name="PRECFOCK"></i>
   <i type="logical" name="LSYMGRAD"> F  </i>
   <i type="logical" name="LHFONE"> F  </i>
   <i type="logical" name="LRHFCALC"> F  </i>
   <i type="logical" name="LTHOMAS"> F  </i>
   <i type="logical" name="LMODELHF"> F  </i>
   <i name="ENCUT4O">     -1.00000000</i>
   <i type="int" name="EXXOEP">     0</i>
   <i type="int" name="FOURORBIT">     0</i>
   <i name="AEXX">      0.00000000</i>
   <i name="HFALPHA">      0.00000000</i>
   <i name="MCALPHA">      0.00000000</i>
   <i name="ALDAX">      1.00000000</i>
   <i name="AGGAX">      1.00000000</i>
   <i name="ALDAC">      1.00000000</i>
   <i name="AGGAC">      1.00000000</i>
   <i type="int" name="NKREDX">     1</i>
   <i type="int" name="NKREDY">     1</i>
   <i type="int" name="NKREDZ">     1</i>
   <i type="logical" name="SHIFTRED"> F  </i>
   <i type="logical" name="ODDONLY"> F  </i>
   <i type="logical" name="EVENONLY"> F  </i>
   <i type="int" name="LMAXFOCK">     0</i>
   <i type="int" name="NMAXFOCKAE">     0</i>
   <i type="logical" name="LFOCKAEDFT"> F  </i>
   <i name="HFSCREEN">      0.00000000</i>
   <i name="HFSCREENC">      0.00000000</i>
   <i type="int" name="NBANDSGWLOW">     0</i>
  </separator>
  <separator name="vdW DFT" >
   <i type="logical" name="LUSE_VDW"> F  </i>
   <i name="Zab_VDW">     -0.84910000</i>
   <i name="PARAM1">      0.12340000</i>
   <i name="PARAM2">      1.00000000</i>
   <i name="PARAM3">      0.00000000</i>
  </separator>
  <separator name="model GW" >
   <i type="int" name="MODEL_GW">     0</i>
   <i name="MODEL_EPS0">     18.26964953</i>
   <i name="MODEL_ALPHA">      1.00000000</i>
  </separator>
  <separator name="linear response parameters" >
   <i type="logical" name="LEPSILON"> F  </i>
   <i type="logical" name="LRPA"> F  </i>
   <i type="logical" name="LNABLA"> F  </i>
   <i type="logical" name="LVEL"> F  </i>
   <i type="int" name="KINTER">     0</i>
   <i name="CSHIFT">      0.10000000</i>
   <i name="OMEGAMAX">     -1.00000000</i>
   <i name="DEG_THRESHOLD">      0.00200000</i>
   <i name="RTIME">     -0.10000000</i>
   <i name="WPLASMAI">      0.00000000</i>
   <v name="DFIELD">      0.00000000      0.00000000      0.00000000</v>
   <v name="WPLASMA">      0.00000000      0.00000000      0.00000000      0.00000000      0.00000000      0.00000000      0.00000000      0.00000000      0.00000000</v>
  </separator>
  <separator name="orbital magnetization" >
   <i type="logical" name="NUCIND"> F  </i>
   <v name="MAGPOS">      0.00000000      0.00000000      0.00000000</v>
   <i type="logical" name="LNICSALL"> T  </i>
   <i type="logical" name="ORBITALMAG"> F  </i>
   <i type="logical" name="LMAGBLOCH"> F  </i>
   <i type="logical" name="LCHIMAG"> F  </i>
   <i type="logical" name="LGAUGE"> T  </i>
   <i type="int" name="MAGATOM">     0</i>
   <v name="MAGDIPOL">      0.00000000      0.00000000      0.00000000</v>
   <v name="AVECCONST">      0.00000000      0.00000000      0.00000000</v>
  </separator>
  <separator name="response functions" >
   <i type="logical" name="LADDER"> F  </i>
   <i type="logical" name="LRPAFORCE"> F  </i>
   <i type="logical" name="LFXC"> F  </i>
   <i type="logical" name="LHARTREE"> T  </i>
   <i type="int" name="IBSE">     0</i>
   <v type="int" name="KPOINT">    -1     0     0     0</v>
   <i type="logical" name="LTCTE"> F  </i>
   <i type="logical" name="LTETE"> F  </i>
   <i type="logical" name="LTRIPLET"> F  </i>
   <i type="logical" name="LFXCEPS"> F  </i>
   <i type="logical" name="LFXHEG"> F  </i>
   <i type="int" name="NATURALO">     2</i>
   <i type="logical" name="L2ORDER"> F  </i>
   <i type="logical" name="LMP2LT"> F  </i>
   <i type="logical" name="LUSEW"> F  </i>
   <i name="ENCUTGW">     -2.00000000</i>
   <i name="ENCUTGWSOFT">     -2.00000000</i>
   <i name="ENCUTLF">     -1.00000000</i>
   <i type="int" name="LMAXMP2">    -1</i>
   <i name="SCISSOR">      0.00000000</i>
   <i type="int" name="NOMEGA">     0</i>
   <i type="int" name="NOMEGAR">     0</i>
   <i type="int" name="NBANDSGW">    -1</i>
   <i type="int" name="NBANDSO">    -1</i>
   <i type="int" name="NBANDSV">    -1</i>
   <i type="int" name="NELM">     1</i>
   <i type="int" name="NELMHF">     1</i>
   <i type="int" name="DIM">     3</i>
   <i type="int" name="ANTIRES">     0</i>
   <i name="OMEGAMAX">    -30.00000000</i>
   <i name="OMEGAMIN">    -30.00000000</i>
   <i name="OMEGATL">   -200.00000000</i>
   <i type="int" name="OMEGAGRID">   140</i>
   <i name="CSHIFT">     -0.10000000</i>
   <i type="logical" name="SELFENERGY"> F  </i>
   <i type="logical" name="LSPECTRAL"> F  </i>
   <i type="logical" name="LSPECTRALGW"> F  </i>
   <i type="logical" name="LSINGLES"> F  </i>
   <i type="logical" name="LFERMIGW"> F  </i>
   <i type="logical" name="ODDONLYGW"> F  </i>
   <i type="logical" name="EVENONLYGW"> F  </i>
   <i type="int" name="NKREDLFX">     1</i>
   <i type="int" name="NKREDLFY">     1</i>
   <i type="int" name="NKREDLFZ">     1</i>
   <i type="int" name="MAXMEM">  2800</i>
   <i type="int" name="TELESCOPE">     0</i>
   <i type="int" name="TAUPAR">     1</i>
   <i type="int" name="OMEGAPAR">    -1</i>
   <i name="LAMBDA">      1.00000000</i>
  </separator>
  <separator name="External order field" >
   <i name="OFIELD_KAPPA">      0.00000000</i>
   <v name="OFIELD_K">      0.00000000      0.00000000      0.00000000</v>
   <i name="OFIELD_Q6_NEAR">      0.00000000</i>
   <i name="OFIELD_Q6_FAR">      0.00000000</i>
   <i name="OFIELD_A">      0.00000000</i>
  </separator>
 </parameters>
 <atominfo>
  <atoms>      15 </atoms>
  <types>       4 </types>
  <array name="atoms" >
   <dimension dim="1">ion</dimension>
   <field type="string">element</field>
   <field type="int">atomtype</field>
   <set>
    <rc><c>Pt</c><c>   1</c></rc>
    <rc><c>Pt</c><c>   1</c></rc>
    <rc><c>Pt</c><c>   1</c></rc>
    <rc><c>Pt</c><c>   1</c></rc>
    <rc><c>Pt</c><c>   1</c></rc>
    <rc><c>Pt</c><c>   1</c></rc>
    <rc><c>Pt</c><c>   1</c></rc>
    <rc><c>Pt</c><c>   1</c></rc>
    <rc><c>Pt</c><c>   1</c></rc>
    <rc><c>Au</c><c>   2</c></rc>
    <rc><c>Au</c><c>   2</c></rc>
    <rc><c>Au</c><c>   2</c></rc>
    <rc><c>O </c><c>   3</c></rc>
    <rc><c>O </c><c>   3</c></rc>
    <rc><c>H </c><c>   4</c></rc>
   </set>
  </array>
  <array name="atomtypes" >
   <dimension dim="1">type</dimension>
   <field type="int">atomspertype</field>
   <field type="string">element</field>
   <field>mass</field>
   <field>valence</field>
   <field type="string">pseudopotential</field>
   <set>
    <rc><c>   9</c><c>Pt</c><c>    195.08000000</c><c>     10.00000000</c><c> PAW_PBE Pt 05Jan2001                   </c></rc>
    <rc><c>   3</c><c>Au</c><c>    196.96600000</c><c>     11.00000000</c><c> PAW_PBE Au 06Sep2000                   </c></rc>
    <rc><c>   2</c><c>O </c><c>     16.00000000</c><c>      6.00000000</c><c> PAW_PBE O 08Apr2002                    </c></rc>
    <rc><c>   1</c><c>H </c><c>      1.00000000</c><c>      1.00000000</c><c> PAW_PBE H 15Jun2001                    </c></rc>
   </set>
  </array>
 </atominfo>
 <structure name="initialpos" >
  <crystal>
   <varray name="basis" >
    <v>       4.88428255       0.00000000       0.00000000 </v>
    <v>       2.44214127       4.22991277       0.00000000 </v>
    <v>       0.00000000       0.00000000      22.10741862 </v>
   </varray>
   <i name="volume">    456.74123834 </i>
   <varray name="rec_basis" >
    <v>       0.20473836      -0.11820575       0.00000000 </v>
    <v>      -0.00000000       0.23641149       0.00000000 </v>
    <v>       0.00000000       0.00000000       0.04523368 </v>
   </varray>
  </crystal>
  <varray name="positions" >
   <v>       0.30286415       0.49410690       0.00209390 </v>
   <v>       0.63619748       0.82744023       0.00209390 </v>
   <v>       0.96953081       0.16077357       0.00209390 </v>
   <v>       0.63619748       0.49410690       0.10624323 </v>
   <v>       0.96953081       0.82744023       0.10624323 </v>
   <v>       0.30286415       0.16077357       0.10624323 </v>
   <v>       0.30286415       0.49410690       0.32458849 </v>
   <v>       0.63619748       0.82744023       0.32458849 </v>
   <v>       0.96953081       0.16077357       0.32458849 </v>
   <v>       0.96953081       0.49410690       0.21557020 </v>
   <v>       0.30286415       0.82744023       0.21557020 </v>
   <v>       0.63619748       0.16077357       0.21557020 </v>
   <v>       0.76871130       0.99259116       0.43532491 </v>
   <v>       0.63852722       0.81279312       0.40965579 </v>
   <v>       0.99225302       0.83012516       0.44138925 </v>
  </varray>
  <varray name="selective"  type="logical" >
   <v type="logical" >  F  F  F </v>
   <v type="logical" >  F  F  F </v>
   <v type="logical" >  F  F  F </v>
   <v type="logical" >  F  F  F </v>
   <v type="logical" >  F  F  F </v>
   <v type="logical" >  F  F  F </v>
   <v type="logical" >  T  T  T </v>
   <v type="logical" >  T  T  T </v>
   <v type="logical" >  T  T  T </v>
   <v type="logical" >  T  T  T </v>
   <v type="logical" >  T  T  T </v>
   <v type="logical" >  T  T  T </v>
   <v type="logical" >  T  T  T </v>
   <v type="logical" >  T  T  T </v>
   <v type="logical" >  T  T  T </v>
  </varray>
  <nose>
   <v>      -3.00000000       0.00000000       0.00010000       0.00010000 </v>
  </nose>
 </structure>
 <calculation>
  <scstep>
   <time name="dav">    7.70    7.81</time>
   <time name="total">    7.76    7.92</time>
   <dipole>
    <v name="dipole">      0.00000000       0.00000000      -0.00007824 </v>
    <i name="Tr[quadrupol]">   -558.77592056 </i>
    <i name="Echarged">      0.00000000 </i>
    <i name="Edipol_quadrupol">      0.00000000 </i>
    <i name="Eion">      0.00000000 </i>
   </dipole>
   <energy>
    <i name="alphaZ">    556.50870195 </i>
    <i name="ewald">  30714.56623753 </i>
    <i name="hartreedc"> -41561.07047235 </i>
    <i name="XCdc">    130.43439700 </i>
    <i name="pawpsdc">   7897.00409008 </i>
    <i name="pawaedc">  -7577.52430609 </i>
    <i name="eentropy">      0.00165629 </i>
    <i name="bandstr">    975.63723954 </i>
    <i name="atom">  10215.28807285 </i>
    <i name="e_fr_energy">   1350.84561680 </i>
    <i name="e_wo_entrp">   1350.84396051 </i>
    <i name="e_0_energy">   1350.84520273 </i>
   </energy>
  </scstep>
  <scstep>
   <time name="dav">    7.69    7.70</time>
   <time name="total">    7.71    7.71</time>
   <dipole>
    <v name="dipole">      0.00000000       0.00000000      -0.00007824 </v>
    <i name="Tr[quadrupol]">   -558.77592056 </i>
    <i name="Echarged">      0.00000000 </i>
    <i name="Edipol_quadrupol">      0.00000000 </i>
    <i name="Eion">      0.00000000 </i>
   </dipole>
   <energy>
    <i name="e_fr_energy">     74.26819826 </i>
    <i name="e_wo_entrp">     74.27135731 </i>
    <i name="e_0_energy">     74.26898802 </i>
   </energy>
  </scstep>
  <scstep>
   <time name="dav">    9.44    9.45</time>
   <time name="total">    9.45    9.46</time>
   <dipole>
    <v name="dipole">      0.00000000       0.00000000      -0.00007824 </v>
    <i name="Tr[quadrupol]">   -558.77592056 </i>
    <i name="Echarged">      0.00000000 </i>
    <i name="Edipol_quadrupol">      0.00000000 </i>
    <i name="Eion">      0.00000000 </i>
   </dipole>
   <energy>
    <i name="e_fr_energy">    -72.58126747 </i>
    <i name="e_wo_entrp">    -72.58734522 </i>
    <i name="e_0_energy">    -72.58278690 </i>
   </energy>
  </scstep>
  <scstep>
   <time name="dav">    9.20    9.20</time>
   <time name="total">    9.22    9.22</time>
   <dipole>
    <v name="dipole">      0.00000000       0.00000000      -0.00007824 </v>
    <i name="Tr[quadrupol]">   -558.77592056 </i>
    <i name="Echarged">      0.00000000 </i>
    <i name="Edipol_quadrupol">      0.00000000 </i>
    <i name="Eion">      0.00000000 </i>
   </dipole>
   <energy>
    <i name="e_fr_energy">    -82.10738160 </i>
    <i name="e_wo_entrp">    -82.11066271 </i>
    <i name="e_0_energy">    -82.10820188 </i>
   </energy>
  </scstep>
  <scstep>
   <time name="dav">   10.07   10.07</time>
   <time name="total">   10.59   10.61</time>
   <dipole>
    <v name="dipole">      0.00000000       0.00000000      -0.00007824 </v>
    <i name="Tr[quadrupol]">   -558.77592056 </i>
    <i name="Echarged">      0.00000000 </i>
    <i name="Edipol_quadrupol">      0.00000000 </i>
    <i name="Eion">      0.00000000 </i>
   </dipole>
   <energy>
    <i name="e_fr_energy">    -82.42715508 </i>
    <i name="e_wo_entrp">    -82.43026618 </i>
    <i name="e_0_energy">    -82.42793286 </i>
   </energy>
  </scstep>
  <scstep>
   <time name="dav">   10.80   10.81</time>
   <time name="total">   11.33   11.34</time>
   <dipole>
    <v name="dipole">      0.00000000       0.00000000       0.19766100 </v>
    <i name="Tr[quadrupol]">   -555.92978539 </i>
    <i name="Echarged">      0.00000000 </i>
    <i name="Edipol_quadrupol">      0.00000000 </i>
    <i name="Eion">      0.00000000 </i>
   </dipole>
   <energy>
    <i name="e_fr_energy">    -78.24195423 </i>
    <i name="e_wo_entrp">    -78.25622747 </i>
    <i name="e_0_energy">    -78.24552254 </i>
   </energy>
  </scstep>
  <scstep>
   <time name="dav">   12.81   12.82</time>
   <time name="total">   13.35   13.36</time>
   <dipole>
    <v name="dipole">      0.00000000       0.00000000      -0.87415712 </v>
    <i name="Tr[quadrupol]">   -557.63293542 </i>
    <i name="Echarged">      0.00000000 </i>
    <i name="Edipol_quadrupol">      0.00000000 </i>
    <i name="Eion">      0.00000000 </i>
   </dipole>
   <energy>
    <i name="e_fr_energy">   -110.96598776 </i>
    <i name="e_wo_entrp">   -110.95439040 </i>
    <i name="e_0_energy">   -110.96308842 </i>
   </energy>
  </scstep>
  <scstep>
   <time name="dav">   11.39   11.40</time>
   <time name="total">   11.93   11.93</time>
   <dipole>
    <v name="dipole">      0.00000000       0.00000000      -0.04392039 </v>
    <i name="Tr[quadrupol]">   -558.88052317 </i>
    <i name="Echarged">      0.00000000 </i>
    <i name="Edipol_quadrupol">      0.00000000 </i>
    <i name="Eion">      0.00000000 </i>
   </dipole>
   <energy>
    <i name="e_fr_energy">    -78.13690966 </i>
    <i name="e_wo_entrp">    -78.12327530 </i>
    <i name="e_0_energy">    -78.13350107 </i>
   </energy>
  </scstep>
  <scstep>
   <time name="dav">   10.54   10.55</time>
   <time name="total">   11.08   11.09</time>
   <dipole>
    <v name="dipole">      0.00000000       0.00000000       0.00196003 </v>
    <i name="Tr[quadrupol]">   -557.78962772 </i>
    <i name="Echarged">      0.00000000 </i>
    <i name="Edipol_quadrupol">      0.00000000 </i>
    <i name="Eion">      0.00000000 </i>
   </dipole>
   <energy>
    <i name="e_fr_energy">    -75.95136449 </i>
    <i name="e_wo_entrp">    -75.93034759 </i>
    <i name="e_0_energy">    -75.94611026 </i>
   </energy>
  </scstep>
  <scstep>
   <time name="dav">   10.34   10.34</time>
   <time name="total">   10.87   10.88</time>
   <dipole>
    <v name="dipole">      0.00000000       0.00000000      -0.00832741 </v>
    <i name="Tr[quadrupol]">   -557.91497184 </i>
    <i name="Echarged">      0.00000000 </i>
    <i name="Edipol_quadrupol">      0.00000000 </i>
    <i name="Eion">      0.00000000 </i>
   </dipole>
   <energy>
    <i name="e_fr_energy">    -75.43267274 </i>
    <i name="e_wo_entrp">    -75.40882446 </i>
    <i name="e_0_energy">    -75.42671067 </i>
   </energy>
  </scstep>
  <scstep>
   <time name="dav">    9.84    9.91</time>
   <time name="total">   10.38   10.45</time>
   <dipole>
    <v name="dipole">      0.00000000       0.00000000       0.01169261 </v>
    <i name="Tr[quadrupol]">   -557.93821586 </i>
    <i name="Echarged">      0.00000000 </i>
    <i name="Edipol_quadrupol">      0.00000000 </i>
    <i name="Eion">      0.00000000 </i>
   </dipole>
   <energy>
    <i name="e_fr_energy">    -75.31589470 </i>
    <i name="e_wo_entrp">    -75.29641468 </i>
    <i name="e_0_energy">    -75.31102469 </i>
   </energy>
  </scstep>
  <scstep>
   <time name="dav">   12.91   13.04</time>
   <time name="total">   13.63   13.76</time>
   <dipole>
    <v name="dipole">      0.00000000       0.00000000       0.01376688 </v>
    <i name="Tr[quadrupol]">   -557.91518399 </i>
    <i name="Echarged">      0.00000000 </i>
    <i name="Edipol_quadrupol">      0.00000000 </i>
    <i name="Eion">      0.00000000 </i>
   </dipole>
   <energy>
    <i name="e_fr_energy">    -75.29732286 </i>
    <i name="e_wo_entrp">    -75.26910791 </i>
    <i name="e_0_energy">    -75.29026912 </i>
   </energy>
  </scstep>
  <scstep>
   <time name="dav">   10.46   10.47</time>
   <time name="total">   11.02   11.03</time>
   <dipole>
    <v name="dipole">      0.00000000       0.00000000       0.00363675 </v>
    <i name="Tr[quadrupol]">   -557.97549945 </i>
    <i name="Echarged">      0.00000000 </i>
    <i name="Edipol_quadrupol">      0.00000000 </i>
    <i name="Eion">      0.00000000 </i>
   </dipole>
   <energy>
    <i name="e_fr_energy">    -75.25844636 </i>
    <i name="e_wo_entrp">    -75.23140537 </i>
    <i name="e_0_energy">    -75.25168611 </i>
   </energy>
  </scstep>
  <scstep>
   <time name="dav">   10.57   10.64</time>
   <time name="total">   11.11   11.19</time>
   <dipole>
    <v name="dipole">      0.00000000       0.00000000      -0.00214093 </v>
    <i name="Tr[quadrupol]">   -558.06442683 </i>
    <i name="Echarged">      0.00000000 </i>
    <i name="Edipol_quadrupol">      0.00000000 </i>
    <i name="Eion">      0.00000000 </i>
   </dipole>
   <energy>
    <i name="e_fr_energy">    -75.25429775 </i>
    <i name="e_wo_entrp">    -75.22731474 </i>
    <i name="e_0_energy">    -75.24755200 </i>
   </energy>
  </scstep>
  <scstep>
   <time name="dav">   10.09   10.11</time>
   <time name="total">   10.64   10.65</time>
   <dipole>
    <v name="dipole">      0.00000000       0.00000000      -0.00733514 </v>
    <i name="Tr[quadrupol]">   -558.11019280 </i>
    <i name="Echarged">      0.00000000 </i>
    <i name="Edipol_quadrupol">      0.00000000 </i>
    <i name="Eion">      0.00000000 </i>
   </dipole>
   <energy>
    <i name="e_fr_energy">    -75.25042117 </i>
    <i name="e_wo_entrp">    -75.22270066 </i>
    <i name="e_0_energy">    -75.24349104 </i>
   </energy>
  </scstep>
  <scstep>
   <time name="dav">    8.95    8.97</time>
   <time name="total">    9.48    9.56</time>
   <dipole>
    <v name="dipole">      0.00000000       0.00000000      -0.01147475 </v>
    <i name="Tr[quadrupol]">   -558.15813848 </i>
    <i name="Echarged">      0.00000000 </i>
    <i name="Edipol_quadrupol">      0.00000000 </i>
    <i name="Eion">      0.00000000 </i>
   </dipole>
   <energy>
    <i name="e_fr_energy">    -75.24959957 </i>
    <i name="e_wo_entrp">    -75.22157499 </i>
    <i name="e_0_energy">    -75.24259343 </i>
   </energy>
  </scstep>
  <scstep>
   <time name="dav">    9.68    9.70</time>
   <time name="total">   10.23   10.24</time>
   <dipole>
    <v name="dipole">      0.00000000       0.00000000      -0.01759706 </v>
    <i name="Tr[quadrupol]">   -558.25619803 </i>
    <i name="Echarged">      0.00000000 </i>
    <i name="Edipol_quadrupol">      0.00000000 </i>
    <i name="Eion">      0.00000000 </i>
   </dipole>
   <energy>
    <i name="e_fr_energy">    -75.24884032 </i>
    <i name="e_wo_entrp">    -75.22080820 </i>
    <i name="e_0_energy">    -75.24183229 </i>
   </energy>
  </scstep>
  <scstep>
   <time name="dav">   10.01   10.05</time>
   <time name="total">   10.56   10.60</time>
   <dipole>
    <v name="dipole">      0.00000000       0.00000000      -0.02004284 </v>
    <i name="Tr[quadrupol]">   -558.30018003 </i>
    <i name="Echarged">      0.00000000 </i>
    <i name="Edipol_quadrupol">      0.00000000 </i>
    <i name="Eion">      0.00000000 </i>
   </dipole>
   <energy>
    <i name="e_fr_energy">    -75.24852774 </i>
    <i name="e_wo_entrp">    -75.22044943 </i>
    <i name="e_0_energy">    -75.24150817 </i>
   </energy>
  </scstep>
  <scstep>
   <time name="dav">   10.08   10.16</time>
   <time name="total">   10.63   10.71</time>
   <dipole>
    <v name="dipole">      0.00000000       0.00000000      -0.02159592 </v>
    <i name="Tr[quadrupol]">   -558.32994279 </i>
    <i name="Echarged">      0.00000000 </i>
    <i name="Edipol_quadrupol">      0.00000000 </i>
    <i name="Eion">      0.00000000 </i>
   </dipole>
   <energy>
    <i name="e_fr_energy">    -75.24839096 </i>
    <i name="e_wo_entrp">    -75.22030605 </i>
    <i name="e_0_energy">    -75.24136973 </i>
   </energy>
  </scstep>
  <scstep>
   <time name="dav">    9.88    9.89</time>
   <time name="total">   10.42   10.43</time>
   <dipole>
    <v name="dipole">      0.00000000       0.00000000      -0.02365378 </v>
    <i name="Tr[quadrupol]">   -558.36947976 </i>
    <i name="Echarged">      0.00000000 </i>
    <i name="Edipol_quadrupol">      0.00000000 </i>
    <i name="Eion">      0.00000000 </i>
   </dipole>
   <energy>
    <i name="e_fr_energy">    -75.24828791 </i>
    <i name="e_wo_entrp">    -75.22029080 </i>
    <i name="e_0_energy">    -75.24128864 </i>
   </energy>
  </scstep>
  <scstep>
   <time name="dav">    9.55    9.56</time>
   <time name="total">   10.09   10.10</time>
   <dipole>
    <v name="dipole">      0.00000000       0.00000000      -0.02519596 </v>
    <i name="Tr[quadrupol]">   -558.41000727 </i>
    <i name="Echarged">      0.00000000 </i>
    <i name="Edipol_quadrupol">      0.00000000 </i>
    <i name="Eion">      0.00000000 </i>
   </dipole>
   <energy>
    <i name="e_fr_energy">    -75.24825393 </i>
    <i name="e_wo_entrp">    -75.22052529 </i>
    <i name="e_0_energy">    -75.24132177 </i>
   </energy>
  </scstep>
  <scstep>
   <time name="dav">    9.02    9.10</time>
   <time name="total">    9.56    9.64</time>
   <dipole>
    <v name="dipole">      0.00000000       0.00000000      -0.02732711 </v>
    <i name="Tr[quadrupol]">   -558.44088542 </i>
    <i name="Echarged">      0.00000000 </i>
    <i name="Edipol_quadrupol">      0.00000000 </i>
    <i name="Eion">      0.00000000 </i>
   </dipole>
   <energy>
    <i name="e_fr_energy">    -75.24833272 </i>
    <i name="e_wo_entrp">    -75.22047053 </i>
    <i name="e_0_energy">    -75.24136717 </i>
   </energy>
  </scstep>
  <scstep>
   <time name="dav">    8.48    8.49</time>
   <time name="total">    9.02    9.03</time>
   <dipole>
    <v name="dipole">      0.00000000       0.00000000      -0.03074538 </v>
    <i name="Tr[quadrupol]">   -558.49081803 </i>
    <i name="Echarged">      0.00000000 </i>
    <i name="Edipol_quadrupol">      0.00000000 </i>
    <i name="Eion">      0.00000000 </i>
   </dipole>
   <energy>
    <i name="e_fr_energy">    -75.24867288 </i>
    <i name="e_wo_entrp">    -75.22071653 </i>
    <i name="e_0_energy">    -75.24168379 </i>
   </energy>
  </scstep>
  <scstep>
   <time name="dav">    9.16    9.20</time>
   <time name="total">    9.70    9.74</time>
   <dipole>
    <v name="dipole">      0.00000000       0.00000000      -0.03260112 </v>
    <i name="Tr[quadrupol]">   -558.52165186 </i>
    <i name="Echarged">      0.00000000 </i>
    <i name="Edipol_quadrupol">      0.00000000 </i>
    <i name="Eion">      0.00000000 </i>
   </dipole>
   <energy>
    <i name="e_fr_energy">    -75.24890395 </i>
    <i name="e_wo_entrp">    -75.22103617 </i>
    <i name="e_0_energy">    -75.24193700 </i>
   </energy>
  </scstep>
  <scstep>
   <time name="dav">    9.33    9.41</time>
   <time name="total">    9.88    9.96</time>
   <dipole>
    <v name="dipole">      0.00000000       0.00000000      -0.03494421 </v>
    <i name="Tr[quadrupol]">   -558.56210599 </i>
    <i name="Echarged">      0.00000000 </i>
    <i name="Edipol_quadrupol">      0.00000000 </i>
    <i name="Eion">      0.00000000 </i>
   </dipole>
   <energy>
    <i name="e_fr_energy">    -75.24914729 </i>
    <i name="e_wo_entrp">    -75.22143706 </i>
    <i name="e_0_energy">    -75.24221973 </i>
   </energy>
  </scstep>
  <scstep>
   <time name="dav">   11.27   11.29</time>
   <time name="total">   11.82   11.83</time>
   <dipole>
    <v name="dipole">      0.00000000       0.00000000      -0.04011254 </v>
    <i name="Tr[quadrupol]">   -558.64865542 </i>
    <i name="Echarged">      0.00000000 </i>
    <i name="Edipol_quadrupol">      0.00000000 </i>
    <i name="Eion">      0.00000000 </i>
   </dipole>
   <energy>
    <i name="e_fr_energy">    -75.24941788 </i>
    <i name="e_wo_entrp">    -75.22101705 </i>
    <i name="e_0_energy">    -75.24231767 </i>
   </energy>
  </scstep>
  <scstep>
   <time name="dav">    9.34    9.36</time>
   <time name="total">    9.89    9.90</time>
   <dipole>
    <v name="dipole">      0.00000000       0.00000000      -0.04100318 </v>
    <i name="Tr[quadrupol]">   -558.69589816 </i>
    <i name="Echarged">      0.00000000 </i>
    <i name="Edipol_quadrupol">      0.00000000 </i>
    <i name="Eion">      0.00000000 </i>
   </dipole>
   <energy>
    <i name="e_fr_energy">    -75.24939218 </i>
    <i name="e_wo_entrp">    -75.22116120 </i>
    <i name="e_0_energy">    -75.24233443 </i>
   </energy>
  </scstep>
  <scstep>
   <time name="dav">    6.85    6.86</time>
   <time name="total">    7.39    7.40</time>
   <dipole>
    <v name="dipole">      0.00000000       0.00000000      -0.04000476 </v>
    <i name="Tr[quadrupol]">   -558.71423173 </i>
    <i name="Echarged">      0.00000000 </i>
    <i name="Edipol_quadrupol">      0.00000000 </i>
    <i name="Eion">      0.00000000 </i>
   </dipole>
   <energy>
    <i name="e_fr_energy">    -75.24931995 </i>
    <i name="e_wo_entrp">    -75.22154142 </i>
    <i name="e_0_energy">    -75.24237531 </i>
   </energy>
  </scstep>
  <scstep>
   <time name="dav">   10.14   10.22</time>
   <time name="total">   10.68   10.76</time>
   <dipole>
    <v name="dipole">      0.00000000       0.00000000      -0.03917747 </v>
    <i name="Tr[quadrupol]">   -558.72185569 </i>
    <i name="Echarged">      0.00000000 </i>
    <i name="Edipol_quadrupol">      0.00000000 </i>
    <i name="Eion">      0.00000000 </i>
   </dipole>
   <energy>
    <i name="e_fr_energy">    -75.24932742 </i>
    <i name="e_wo_entrp">    -75.22182746 </i>
    <i name="e_0_energy">    -75.24245243 </i>
   </energy>
  </scstep>
  <scstep>
   <time name="dav">    7.73    7.76</time>
   <time name="total">    8.28    8.31</time>
   <dipole>
    <v name="dipole">      0.00000000       0.00000000      -0.03743722 </v>
    <i name="Tr[quadrupol]">   -558.72054977 </i>
    <i name="Echarged">      0.00000000 </i>
    <i name="Edipol_quadrupol">      0.00000000 </i>
    <i name="Eion">      0.00000000 </i>
   </dipole>
   <energy>
    <i name="e_fr_energy">    -75.24942629 </i>
    <i name="e_wo_entrp">    -75.22240088 </i>
    <i name="e_0_energy">    -75.24266994 </i>
   </energy>
  </scstep>
  <scstep>
   <time name="dav">    8.37    8.38</time>
   <time name="total">    8.91    8.92</time>
   <dipole>
    <v name="dipole">      0.00000000       0.00000000      -0.03693472 </v>
    <i name="Tr[quadrupol]">   -558.71694047 </i>
    <i name="Echarged">      0.00000000 </i>
    <i name="Edipol_quadrupol">      0.00000000 </i>
    <i name="Eion">      0.00000000 </i>
   </dipole>
   <energy>
    <i name="e_fr_energy">    -75.24943222 </i>
    <i name="e_wo_entrp">    -75.22241255 </i>
    <i name="e_0_energy">    -75.24267731 </i>
   </energy>
  </scstep>
  <scstep>
   <time name="dav">    6.14    6.22</time>
   <time name="total">    6.69    6.77</time>
   <dipole>
    <v name="dipole">      0.00000000       0.00000000      -0.03675196 </v>
    <i name="Tr[quadrupol]">   -558.71628771 </i>
    <i name="Echarged">      0.00000000 </i>
    <i name="Edipol_quadrupol">      0.00000000 </i>
    <i name="Eion">      0.00000000 </i>
   </dipole>
   <energy>
    <i name="e_fr_energy">    -75.24941864 </i>
    <i name="e_wo_entrp">    -75.22234238 </i>
    <i name="e_0_energy">    -75.24264957 </i>
   </energy>
  </scstep>
  <scstep>
   <time name="dav">    6.43    6.44</time>
   <time name="total">    6.98    6.99</time>
   <dipole>
    <v name="dipole">      0.00000000       0.00000000      -0.03714008 </v>
    <i name="Tr[quadrupol]">   -558.71533455 </i>
    <i name="Echarged">      0.00000000 </i>
    <i name="Edipol_quadrupol">      0.00000000 </i>
    <i name="Eion">      0.00000000 </i>
   </dipole>
   <energy>
    <i name="e_fr_energy">    -75.24935624 </i>
    <i name="e_wo_entrp">    -75.22197440 </i>
    <i name="e_0_energy">    -75.24251078 </i>
   </energy>
  </scstep>
  <scstep>
   <time name="dav">    9.56    9.57</time>
   <time name="total">   10.11   10.12</time>
   <dipole>
    <v name="dipole">      0.00000000       0.00000000      -0.03705797 </v>
    <i name="Tr[quadrupol]">   -558.71457212 </i>
    <i name="Echarged">      0.00000000 </i>
    <i name="Edipol_quadrupol">      0.00000000 </i>
    <i name="Eion">      0.00000000 </i>
   </dipole>
   <energy>
    <i name="e_fr_energy">    -75.24934758 </i>
    <i name="e_wo_entrp">    -75.22184220 </i>
    <i name="e_0_energy">    -75.24247124 </i>
   </energy>
  </scstep>
  <scstep>
   <time name="dav">    6.15    6.16</time>
   <time name="total">    6.70    6.70</time>
   <dipole>
    <v name="dipole">      0.00000000       0.00000000      -0.03689846 </v>
    <i name="Tr[quadrupol]">   -558.70805751 </i>
    <i name="Echarged">      0.00000000 </i>
    <i name="Edipol_quadrupol">      0.00000000 </i>
    <i name="Eion">      0.00000000 </i>
   </dipole>
   <energy>
    <i name="e_fr_energy">    -75.24934980 </i>
    <i name="e_wo_entrp">    -75.22185678 </i>
    <i name="e_0_energy">    -75.24247654 </i>
   </energy>
  </scstep>
  <scstep>
   <time name="dav">    5.74    5.82</time>
   <time name="total">    5.78    5.86</time>
   <dipole>
    <v name="dipole">      0.00000000       0.00000000      -0.03687486 </v>
    <i name="Tr[quadrupol]">   -558.70815223 </i>
    <i name="Echarged">      0.00000000 </i>
    <i name="Edipol_quadrupol">      0.00000000 </i>
    <i name="Eion">      0.00000000 </i>
   </dipole>
   <energy>
    <i name="alphaZ">    557.64290851 </i>
    <i name="ewald">  30714.56623753 </i>
    <i name="hartreedc"> -41447.61860722 </i>
    <i name="XCdc">    126.95339389 </i>
    <i name="pawpsdc">   8151.54677746 </i>
    <i name="pawaedc">  -7859.58363134 </i>
    <i name="eentropy">     -0.02749052 </i>
    <i name="bandstr">   -534.01701140 </i>
    <i name="atom">  10215.28807285 </i>
    <i name="e_fr_energy">    -75.24935023 </i>
    <i name="e_wo_entrp">    -75.22185971 </i>
    <i name="e_0_energy">    -75.24247760 </i>
   </energy>
  </scstep>
  <structure>
   <crystal>
    <varray name="basis" >
     <v>       4.88428255       0.00000000       0.00000000 </v>
     <v>       2.44214127       4.22991277       0.00000000 </v>
     <v>       0.00000000       0.00000000      22.10741862 </v>
    </varray>
    <i name="volume">    456.74123834 </i>
    <varray name="rec_basis" >
     <v>       0.20473836      -0.11820575       0.00000000 </v>
     <v>      -0.00000000       0.23641149       0.00000000 </v>
     <v>       0.00000000       0.00000000       0.04523368 </v>
    </varray>
   </crystal>
   <varray name="positions" >
    <v>       0.30286415       0.49410690       0.00209390 </v>
    <v>       0.63619748       0.82744023       0.00209390 </v>
    <v>       0.96953081       0.16077357       0.00209390 </v>
    <v>       0.63619748       0.49410690       0.10624323 </v>
    <v>       0.96953081       0.82744023       0.10624323 </v>
    <v>       0.30286415       0.16077357       0.10624323 </v>
    <v>       0.30286415       0.49410690       0.32458849 </v>
    <v>       0.63619748       0.82744023       0.32458849 </v>
    <v>       0.96953081       0.16077357       0.32458849 </v>
    <v>       0.96953081       0.49410690       0.21557020 </v>
    <v>       0.30286415       0.82744023       0.21557020 </v>
    <v>       0.63619748       0.16077357       0.21557020 </v>
    <v>       0.76871130       0.99259116       0.43532491 </v>
    <v>       0.63852722       0.81279312       0.40965579 </v>
    <v>       0.99225302       0.83012516       0.44138925 </v>
   </varray>
  </structure>
  <varray name="forces" >
   <v>      -0.00056279      -0.01238287      -0.13186249 </v>
   <v>      -0.01525372       0.00992644      -0.35923257 </v>
   <v>       0.00521739       0.00883146      -0.13594874 </v>
   <v>       0.04429793       0.07389956       0.18749845 </v>
   <v>      -0.07772263      -0.01613855       0.17604297 </v>
   <v>       0.03240889      -0.06097009       0.17948271 </v>
   <v>       0.05192089       0.02144268      -0.34187850 </v>
   <v>      -0.05424240      -0.00846870      -2.04976864 </v>
   <v>      -0.10631056      -0.03640503      -0.16143199 </v>
   <v>      -0.05057470       0.02504845      -0.03280322 </v>
   <v>       0.05460073       0.03151765      -0.05498737 </v>
   <v>      -0.02139204      -0.05918797      -0.11218797 </v>
   <v>       0.43809556       0.32250371       0.51513447 </v>
   <v>      -0.32868462      -0.26970503       2.31614662 </v>
   <v>       0.02820208      -0.02991171       0.00579626 </v>
  </varray>
  <varray name="stress" >
   <v>     -23.88663481       0.58953658       2.48014333 </v>
   <v>       0.58953657     -23.97979351       0.72898040 </v>
   <v>       2.48014335       0.72898038      26.14390093 </v>
  </varray>
  <energy>
   <i name="e_fr_energy">    -75.24935023 </i>
   <i name="e_wo_entrp">    -75.24247760 </i>
   <i name="e_0_energy">     -0.02749052 </i>
  </energy>
  <time name="totalsc">  358.78  361.66</time>
 </calculation>
 <calculation>
  <scstep>
   <time name="dav">    7.59    7.62</time>
   <time name="total">    8.13    8.17</time>
   <dipole>
    <v name="dipole">      0.00000000       0.00000000      -0.03691374 </v>
    <i name="Tr[quadrupol]">   -558.86439737 </i>
    <i name="Echarged">      0.00000000 </i>
    <i name="Edipol_quadrupol">      0.00000000 </i>
    <i name="Eion">      0.00000000 </i>
   </dipole>
   <energy>
    <i name="alphaZ">    557.64107396 </i>
    <i name="ewald">  30716.35480942 </i>
    <i name="hartreedc"> -41451.39094990 </i>
    <i name="XCdc">    126.85860501 </i>
    <i name="pawpsdc">   8151.55029353 </i>
    <i name="pawaedc">  -7859.58711149 </i>
    <i name="eentropy">     -0.02675451 </i>
    <i name="bandstr">   -532.01122997 </i>
    <i name="atom">  10215.28807285 </i>
    <i name="e_fr_energy">    -75.32319110 </i>
    <i name="e_wo_entrp">    -75.29643659 </i>
    <i name="e_0_energy">    -75.31650247 </i>
   </energy>
  </scstep>
  <scstep>
   <time name="dav">    9.81    9.83</time>
   <time name="total">   10.36   10.45</time>
   <dipole>
    <v name="dipole">      0.00000000       0.00000000       0.02092072 </v>
    <i name="Tr[quadrupol]">   -558.80427706 </i>
    <i name="Echarged">      0.00000000 </i>
    <i name="Edipol_quadrupol">      0.00000000 </i>
    <i name="Eion">      0.00000000 </i>
   </dipole>
   <energy>
    <i name="e_fr_energy">    -75.50772045 </i>
    <i name="e_wo_entrp">    -75.49509035 </i>
    <i name="e_0_energy">    -75.50456293 </i>
   </energy>
  </scstep>
  <scstep>
   <time name="dav">    9.20    9.22</time>
   <time name="total">    9.75    9.77</time>
   <dipole>
    <v name="dipole">      0.00000000       0.00000000      -0.03756004 </v>
    <i name="Tr[quadrupol]">   -558.73174173 </i>
    <i name="Echarged">      0.00000000 </i>
    <i name="Edipol_quadrupol">      0.00000000 </i>
    <i name="Eion">      0.00000000 </i>
   </dipole>
   <energy>
    <i name="e_fr_energy">    -75.38036772 </i>
    <i name="e_wo_entrp">    -75.35090192 </i>
    <i name="e_0_energy">    -75.37300127 </i>
   </energy>
  </scstep>
  <scstep>
   <time name="dav">    9.85    9.87</time>
   <time name="total">   10.39   10.41</time>
   <dipole>
    <v name="dipole">      0.00000000       0.00000000      -0.02370136 </v>
    <i name="Tr[quadrupol]">   -558.74251853 </i>
    <i name="Echarged">      0.00000000 </i>
    <i name="Edipol_quadrupol">      0.00000000 </i>
    <i name="Eion">      0.00000000 </i>
   </dipole>
   <energy>
    <i name="e_fr_energy">    -75.37287319 </i>
    <i name="e_wo_entrp">    -75.34820632 </i>
    <i name="e_0_energy">    -75.36670647 </i>
   </energy>
  </scstep>
  <scstep>
   <time name="dav">   10.45   10.54</time>
   <time name="total">   11.00   11.08</time>
   <dipole>
    <v name="dipole">      0.00000000       0.00000000      -0.02741859 </v>
    <i name="Tr[quadrupol]">   -558.70148466 </i>
    <i name="Echarged">      0.00000000 </i>
    <i name="Edipol_quadrupol">      0.00000000 </i>
    <i name="Eion">      0.00000000 </i>
   </dipole>
   <energy>
    <i name="e_fr_energy">    -75.37280575 </i>
    <i name="e_wo_entrp">    -75.34542778 </i>
    <i name="e_0_energy">    -75.36596126 </i>
   </energy>
  </scstep>
  <scstep>
   <time name="dav">   10.67   10.68</time>
   <time name="total">   11.21   11.23</time>
   <dipole>
    <v name="dipole">      0.00000000       0.00000000      -0.02563011 </v>
    <i name="Tr[quadrupol]">   -558.76908574 </i>
    <i name="Echarged">      0.00000000 </i>
    <i name="Edipol_quadrupol">      0.00000000 </i>
    <i name="Eion">      0.00000000 </i>
   </dipole>
   <energy>
    <i name="e_fr_energy">    -75.37122059 </i>
    <i name="e_wo_entrp">    -75.34519776 </i>
    <i name="e_0_energy">    -75.36471488 </i>
   </energy>
  </scstep>
  <scstep>
   <time name="dav">   10.21   10.25</time>
   <time name="total">   10.76   10.79</time>
   <dipole>
    <v name="dipole">      0.00000000       0.00000000      -0.02576176 </v>
    <i name="Tr[quadrupol]">   -558.75922459 </i>
    <i name="Echarged">      0.00000000 </i>
    <i name="Edipol_quadrupol">      0.00000000 </i>
    <i name="Eion">      0.00000000 </i>
   </dipole>
   <energy>
    <i name="e_fr_energy">    -75.37059649 </i>
    <i name="e_wo_entrp">    -75.34459810 </i>
    <i name="e_0_energy">    -75.36409689 </i>
   </energy>
  </scstep>
  <scstep>
   <time name="dav">   10.33   10.42</time>
   <time name="total">   10.87   10.96</time>
   <dipole>
    <v name="dipole">      0.00000000       0.00000000      -0.02415262 </v>
    <i name="Tr[quadrupol]">   -558.75570081 </i>
    <i name="Echarged">      0.00000000 </i>
    <i name="Edipol_quadrupol">      0.00000000 </i>
    <i name="Eion">      0.00000000 </i>
   </dipole>
   <energy>
    <i name="e_fr_energy">    -75.37053598 </i>
    <i name="e_wo_entrp">    -75.34473735 </i>
    <i name="e_0_energy">    -75.36408632 </i>
   </energy>
  </scstep>
  <scstep>
   <time name="dav">    9.75    9.77</time>
   <time name="total">   10.30   10.31</time>
   <dipole>
    <v name="dipole">      0.00000000       0.00000000      -0.02392822 </v>
    <i name="Tr[quadrupol]">   -558.75439778 </i>
    <i name="Echarged">      0.00000000 </i>
    <i name="Edipol_quadrupol">      0.00000000 </i>
    <i name="Eion">      0.00000000 </i>
   </dipole>
   <energy>
    <i name="e_fr_energy">    -75.37053648 </i>
    <i name="e_wo_entrp">    -75.34474529 </i>
    <i name="e_0_energy">    -75.36408868 </i>
   </energy>
  </scstep>
  <scstep>
   <time name="dav">    9.69    9.70</time>
   <time name="total">   10.23   10.24</time>
   <dipole>
    <v name="dipole">      0.00000000       0.00000000      -0.02339646 </v>
    <i name="Tr[quadrupol]">   -558.74938784 </i>
    <i name="Echarged">      0.00000000 </i>
    <i name="Edipol_quadrupol">      0.00000000 </i>
    <i name="Eion">      0.00000000 </i>
   </dipole>
   <energy>
    <i name="e_fr_energy">    -75.37054017 </i>
    <i name="e_wo_entrp">    -75.34462889 </i>
    <i name="e_0_energy">    -75.36406235 </i>
   </energy>
  </scstep>
  <scstep>
   <time name="dav">    9.50    9.55</time>
   <time name="total">   10.04   10.10</time>
   <dipole>
    <v name="dipole">      0.00000000       0.00000000      -0.02310361 </v>
    <i name="Tr[quadrupol]">   -558.74866610 </i>
    <i name="Echarged">      0.00000000 </i>
    <i name="Edipol_quadrupol">      0.00000000 </i>
    <i name="Eion">      0.00000000 </i>
   </dipole>
   <energy>
    <i name="e_fr_energy">    -75.37054744 </i>
    <i name="e_wo_entrp">    -75.34467623 </i>
    <i name="e_0_energy">    -75.36407964 </i>
   </energy>
  </scstep>
  <scstep>
   <time name="dav">    7.31    7.32</time>
   <time name="total">    7.86    7.87</time>
   <dipole>
    <v name="dipole">      0.00000000       0.00000000      -0.02272200 </v>
    <i name="Tr[quadrupol]">   -558.74360022 </i>
    <i name="Echarged">      0.00000000 </i>
    <i name="Edipol_quadrupol">      0.00000000 </i>
    <i name="Eion">      0.00000000 </i>
   </dipole>
   <energy>
    <i name="e_fr_energy">    -75.37055531 </i>
    <i name="e_wo_entrp">    -75.34468860 </i>
    <i name="e_0_energy">    -75.36408863 </i>
   </energy>
  </scstep>
  <scstep>
   <time name="dav">    6.55    6.59</time>
   <time name="total">    7.10    7.13</time>
   <dipole>
    <v name="dipole">      0.00000000       0.00000000      -0.02247721 </v>
    <i name="Tr[quadrupol]">   -558.74256889 </i>
    <i name="Echarged">      0.00000000 </i>
    <i name="Edipol_quadrupol">      0.00000000 </i>
    <i name="Eion">      0.00000000 </i>
   </dipole>
   <energy>
    <i name="e_fr_energy">    -75.37056155 </i>
    <i name="e_wo_entrp">    -75.34467285 </i>
    <i name="e_0_energy">    -75.36408938 </i>
   </energy>
  </scstep>
  <scstep>
   <time name="dav">    6.14    6.14</time>
   <time name="total">    6.69    6.69</time>
   <dipole>
    <v name="dipole">      0.00000000       0.00000000      -0.02224306 </v>
    <i name="Tr[quadrupol]">   -558.73807963 </i>
    <i name="Echarged">      0.00000000 </i>
    <i name="Edipol_quadrupol">      0.00000000 </i>
    <i name="Eion">      0.00000000 </i>
   </dipole>
   <energy>
    <i name="e_fr_energy">    -75.37056584 </i>
    <i name="e_wo_entrp">    -75.34467572 </i>
    <i name="e_0_energy">    -75.36409331 </i>
   </energy>
  </scstep>
  <scstep>
   <time name="dav">    6.15    6.16</time>
   <time name="total">    6.69    6.70</time>
   <dipole>
    <v name="dipole">      0.00000000       0.00000000      -0.02204182 </v>
    <i name="Tr[quadrupol]">   -558.73760956 </i>
    <i name="Echarged">      0.00000000 </i>
    <i name="Edipol_quadrupol">      0.00000000 </i>
    <i name="Eion">      0.00000000 </i>
   </dipole>
   <energy>
    <i name="e_fr_energy">    -75.37056945 </i>
    <i name="e_wo_entrp">    -75.34467363 </i>
    <i name="e_0_energy">    -75.36409549 </i>
   </energy>
  </scstep>
  <scstep>
   <time name="dav">    6.82    6.83</time>
   <time name="total">    7.37    7.38</time>
   <dipole>
    <v name="dipole">      0.00000000       0.00000000      -0.02170086 </v>
    <i name="Tr[quadrupol]">   -558.73291619 </i>
    <i name="Echarged">      0.00000000 </i>
    <i name="Edipol_quadrupol">      0.00000000 </i>
    <i name="Eion">      0.00000000 </i>
   </dipole>
   <energy>
    <i name="e_fr_energy">    -75.37057415 </i>
    <i name="e_wo_entrp">    -75.34466360 </i>
    <i name="e_0_energy">    -75.36409651 </i>
   </energy>
  </scstep>
  <scstep>
   <time name="dav">    6.18    6.19</time>
   <time name="total">    6.73    6.74</time>
   <dipole>
    <v name="dipole">      0.00000000       0.00000000      -0.02147960 </v>
    <i name="Tr[quadrupol]">   -558.72850934 </i>
    <i name="Echarged">      0.00000000 </i>
    <i name="Edipol_quadrupol">      0.00000000 </i>
    <i name="Eion">      0.00000000 </i>
   </dipole>
   <energy>
    <i name="e_fr_energy">    -75.37057636 </i>
    <i name="e_wo_entrp">    -75.34464949 </i>
    <i name="e_0_energy">    -75.36409464 </i>
   </energy>
  </scstep>
  <scstep>
   <time name="dav">    9.21    9.25</time>
   <time name="total">   10.04   10.08</time>
   <dipole>
    <v name="dipole">      0.00000000       0.00000000      -0.02128435 </v>
    <i name="Tr[quadrupol]">   -558.72416815 </i>
    <i name="Echarged">      0.00000000 </i>
    <i name="Edipol_quadrupol">      0.00000000 </i>
    <i name="Eion">      0.00000000 </i>
   </dipole>
   <energy>
    <i name="e_fr_energy">    -75.37057765 </i>
    <i name="e_wo_entrp">    -75.34463870 </i>
    <i name="e_0_energy">    -75.36409292 </i>
   </energy>
  </scstep>
  <scstep>
   <time name="dav">    6.20    6.22</time>
   <time name="total">    6.24    6.25</time>
   <dipole>
    <v name="dipole">      0.00000000       0.00000000      -0.02114044 </v>
    <i name="Tr[quadrupol]">   -558.72007345 </i>
    <i name="Echarged">      0.00000000 </i>
    <i name="Edipol_quadrupol">      0.00000000 </i>
    <i name="Eion">      0.00000000 </i>
   </dipole>
   <energy>
    <i name="alphaZ">    556.42277348 </i>
    <i name="ewald">  30716.35480942 </i>
    <i name="hartreedc"> -41447.84051109 </i>
    <i name="XCdc">    126.79851965 </i>
    <i name="pawpsdc">   8142.35664351 </i>
    <i name="pawaedc">  -7850.26705270 </i>
    <i name="eentropy">     -0.02593558 </i>
    <i name="bandstr">   -534.45789771 </i>
    <i name="atom">  10215.28807285 </i>
    <i name="e_fr_energy">    -75.37057818 </i>
    <i name="e_wo_entrp">    -75.34464259 </i>
    <i name="e_0_energy">    -75.36409428 </i>
   </energy>
  </scstep>
  <structure>
   <crystal>
    <varray name="basis" >
     <v>       4.88428255       0.00000000       0.00000000 </v>
     <v>       2.44214127       4.22991277       0.00000000 </v>
     <v>       0.00000000       0.00000000      22.10741862 </v>
    </varray>
    <i name="volume">    456.74123834 </i>
    <varray name="rec_basis" >
     <v>       0.20473836      -0.11820575       0.00000000 </v>
     <v>      -0.00000000       0.23641149       0.00000000 </v>
     <v>       0.00000000       0.00000000       0.04523368 </v>
    </varray>
   </crystal>
   <varray name="positions" >
    <v>       0.30286415       0.49410690       0.00209390 </v>
    <v>       0.63619748       0.82744023       0.00209390 </v>
    <v>       0.96953081       0.16077357       0.00209390 </v>
    <v>       0.63619748       0.49410690       0.10624323 </v>
    <v>       0.96953081       0.82744023       0.10624323 </v>
    <v>       0.30286415       0.16077357       0.10624323 </v>
    <v>       0.30302037       0.49420472       0.32429007 </v>
    <v>       0.63600249       0.82740160       0.32279929 </v>
    <v>       0.96919384       0.16060748       0.32444758 </v>
    <v>       0.96927386       0.49422117       0.21554157 </v>
    <v>       0.30300797       0.82758402       0.21552220 </v>
    <v>       0.63624797       0.16050355       0.21547227 </v>
    <v>       0.76970651       0.99406243       0.43577456 </v>
    <v>       0.63784384       0.81156271       0.41167750 </v>
    <v>       0.99243267       0.82998870       0.44139431 </v>
   </varray>
  </structure>
  <varray name="forces" >
   <v>       0.00063223      -0.01250224      -0.12766040 </v>
   <v>      -0.01608930       0.00905876      -0.35936666 </v>
   <v>       0.00633616       0.01067556      -0.13357446 </v>
   <v>       0.04336544       0.07205635       0.18865124 </v>
   <v>      -0.07266198      -0.01939557       0.17281126 </v>
   <v>       0.02692822      -0.05876292       0.17823277 </v>
   <v>       0.03757605       0.01725251      -0.30612694 </v>
   <v>      -0.08339459      -0.07040392      -0.21612499 </v>
   <v>      -0.09807849      -0.02852027      -0.13174609 </v>
   <v>      -0.01570787      -0.01774992      -0.09379125 </v>
   <v>      -0.00225071       0.02966579      -0.11882397 </v>
   <v>       0.00200044      -0.01749649      -0.15652153 </v>
   <v>       0.11901786       0.10150320       0.32236522 </v>
   <v>      -0.07094855       0.01057193       0.73059528 </v>
   <v>       0.12327509      -0.02595277       0.05108051 </v>
  </varray>
  <varray name="stress" >
   <v>     -24.62752384      -0.25023772       2.25073522 </v>
   <v>      -0.25023769     -24.60072946       0.78413692 </v>
   <v>       2.25073521       0.78413693      15.99886535 </v>
  </varray>
  <energy>
   <i name="e_fr_energy">    -75.37057818 </i>
   <i name="e_wo_entrp">    -75.36409428 </i>
   <i name="e_0_energy">     -0.02593558 </i>
  </energy>
  <time name="totalsc">  176.78  177.38</time>
 </calculation>
 <calculation>
  <scstep>
   <time name="dav">    7.59    7.63</time>
   <time name="total">    8.13    8.17</time>
   <dipole>
    <v name="dipole">      0.00000000       0.00000000      -0.02105605 </v>
    <i name="Tr[quadrupol]">   -558.78408291 </i>
    <i name="Echarged">      0.00000000 </i>
    <i name="Edipol_quadrupol">      0.00000000 </i>
    <i name="Eion">      0.00000000 </i>
   </dipole>
   <energy>
    <i name="alphaZ">    556.21331319 </i>
    <i name="ewald">  30717.69206886 </i>
    <i name="hartreedc"> -41449.91095382 </i>
    <i name="XCdc">    126.76307750 </i>
    <i name="pawpsdc">   8142.35566167 </i>
    <i name="pawaedc">  -7850.26608479 </i>
    <i name="eentropy">     -0.02534709 </i>
    <i name="bandstr">   -533.48205180 </i>
    <i name="atom">  10215.28807285 </i>
    <i name="e_fr_energy">    -75.37224342 </i>
    <i name="e_wo_entrp">    -75.34689632 </i>
    <i name="e_0_energy">    -75.36590664 </i>
   </energy>
  </scstep>
  <scstep>
   <time name="dav">   10.02   10.03</time>
   <time name="total">   10.57   10.58</time>
   <dipole>
    <v name="dipole">      0.00000000       0.00000000       0.00492516 </v>
    <i name="Tr[quadrupol]">   -558.78194810 </i>
    <i name="Echarged">      0.00000000 </i>
    <i name="Edipol_quadrupol">      0.00000000 </i>
    <i name="Eion">      0.00000000 </i>
   </dipole>
   <energy>
    <i name="e_fr_energy">    -75.40936311 </i>
    <i name="e_wo_entrp">    -75.39301309 </i>
    <i name="e_0_energy">    -75.40527560 </i>
   </energy>
  </scstep>
  <scstep>
   <time name="dav">   10.07   10.08</time>
   <time name="total">   10.61   10.62</time>
   <dipole>
    <v name="dipole">      0.00000000       0.00000000      -0.02256035 </v>
    <i name="Tr[quadrupol]">   -558.74663371 </i>
    <i name="Echarged">      0.00000000 </i>
    <i name="Edipol_quadrupol">      0.00000000 </i>
    <i name="Eion">      0.00000000 </i>
   </dipole>
   <energy>
    <i name="e_fr_energy">    -75.38383099 </i>
    <i name="e_wo_entrp">    -75.35680889 </i>
    <i name="e_0_energy">    -75.37707547 </i>
   </energy>
  </scstep>
  <scstep>
   <time name="dav">    9.79    9.81</time>
   <time name="total">   10.33   10.35</time>
   <dipole>
    <v name="dipole">      0.00000000       0.00000000      -0.01568657 </v>
    <i name="Tr[quadrupol]">   -558.75408034 </i>
    <i name="Echarged">      0.00000000 </i>
    <i name="Edipol_quadrupol">      0.00000000 </i>
    <i name="Eion">      0.00000000 </i>
   </dipole>
   <energy>
    <i name="e_fr_energy">    -75.38174972 </i>
    <i name="e_wo_entrp">    -75.35736197 </i>
    <i name="e_0_energy">    -75.37565278 </i>
   </energy>
  </scstep>
  <scstep>
   <time name="dav">   10.51   10.52</time>
   <time name="total">   11.06   11.07</time>
   <dipole>
    <v name="dipole">      0.00000000       0.00000000      -0.01519660 </v>
    <i name="Tr[quadrupol]">   -558.71599655 </i>
    <i name="Echarged">      0.00000000 </i>
    <i name="Edipol_quadrupol">      0.00000000 </i>
    <i name="Eion">      0.00000000 </i>
   </dipole>
   <energy>
    <i name="e_fr_energy">    -75.38166185 </i>
    <i name="e_wo_entrp">    -75.35650075 </i>
    <i name="e_0_energy">    -75.37537157 </i>
   </energy>
  </scstep>
  <scstep>
   <time name="dav">   10.50   10.51</time>
   <time name="total">   11.04   11.05</time>
   <dipole>
    <v name="dipole">      0.00000000       0.00000000      -0.01597644 </v>
    <i name="Tr[quadrupol]">   -558.75547544 </i>
    <i name="Echarged">      0.00000000 </i>
    <i name="Edipol_quadrupol">      0.00000000 </i>
    <i name="Eion">      0.00000000 </i>
   </dipole>
   <energy>
    <i name="e_fr_energy">    -75.38136027 </i>
    <i name="e_wo_entrp">    -75.35632246 </i>
    <i name="e_0_energy">    -75.37510082 </i>
   </energy>
  </scstep>
  <scstep>
   <time name="dav">   10.37   10.40</time>
   <time name="total">   10.91   10.94</time>
   <dipole>
    <v name="dipole">      0.00000000       0.00000000      -0.01622838 </v>
    <i name="Tr[quadrupol]">   -558.75553236 </i>
    <i name="Echarged">      0.00000000 </i>
    <i name="Edipol_quadrupol">      0.00000000 </i>
    <i name="Eion">      0.00000000 </i>
   </dipole>
   <energy>
    <i name="e_fr_energy">    -75.38124007 </i>
    <i name="e_wo_entrp">    -75.35610937 </i>
    <i name="e_0_energy">    -75.37495739 </i>
   </energy>
  </scstep>
  <scstep>
   <time name="dav">   10.34   10.35</time>
   <time name="total">   10.88   10.89</time>
   <dipole>
    <v name="dipole">      0.00000000       0.00000000      -0.01557846 </v>
    <i name="Tr[quadrupol]">   -558.75990805 </i>
    <i name="Echarged">      0.00000000 </i>
    <i name="Edipol_quadrupol">      0.00000000 </i>
    <i name="Eion">      0.00000000 </i>
   </dipole>
   <energy>
    <i name="e_fr_energy">    -75.38121862 </i>
    <i name="e_wo_entrp">    -75.35621833 </i>
    <i name="e_0_energy">    -75.37496855 </i>
   </energy>
  </scstep>
  <scstep>
   <time name="dav">    9.74    9.74</time>
   <time name="total">   10.28   10.28</time>
   <dipole>
    <v name="dipole">      0.00000000       0.00000000      -0.01538787 </v>
    <i name="Tr[quadrupol]">   -558.76209593 </i>
    <i name="Echarged">      0.00000000 </i>
    <i name="Edipol_quadrupol">      0.00000000 </i>
    <i name="Eion">      0.00000000 </i>
   </dipole>
   <energy>
    <i name="e_fr_energy">    -75.38121987 </i>
    <i name="e_wo_entrp">    -75.35625767 </i>
    <i name="e_0_energy">    -75.37497932 </i>
   </energy>
  </scstep>
  <scstep>
   <time name="dav">    8.47    8.47</time>
   <time name="total">    9.01    9.02</time>
   <dipole>
    <v name="dipole">      0.00000000       0.00000000      -0.01502716 </v>
    <i name="Tr[quadrupol]">   -558.76132727 </i>
    <i name="Echarged">      0.00000000 </i>
    <i name="Edipol_quadrupol">      0.00000000 </i>
    <i name="Eion">      0.00000000 </i>
   </dipole>
   <energy>
    <i name="e_fr_energy">    -75.38122279 </i>
    <i name="e_wo_entrp">    -75.35629050 </i>
    <i name="e_0_energy">    -75.37498971 </i>
   </energy>
  </scstep>
  <scstep>
   <time name="dav">    6.28    6.29</time>
   <time name="total">    6.32    6.33</time>
   <dipole>
    <v name="dipole">      0.00000000       0.00000000      -0.01491734 </v>
    <i name="Tr[quadrupol]">   -558.75807110 </i>
    <i name="Echarged">      0.00000000 </i>
    <i name="Edipol_quadrupol">      0.00000000 </i>
    <i name="Eion">      0.00000000 </i>
   </dipole>
   <energy>
    <i name="alphaZ">    556.74365303 </i>
    <i name="ewald">  30717.69206886 </i>
    <i name="hartreedc"> -41448.35336173 </i>
    <i name="XCdc">    126.73690708 </i>
    <i name="pawpsdc">   8139.27837491 </i>
    <i name="pawaedc">  -7847.14684006 </i>
    <i name="eentropy">     -0.02493530 </i>
    <i name="bandstr">   -535.59516326 </i>
    <i name="atom">  10215.28807285 </i>
    <i name="e_fr_energy">    -75.38122362 </i>
    <i name="e_wo_entrp">    -75.35628832 </i>
    <i name="e_0_energy">    -75.37498980 </i>
   </energy>
  </scstep>
  <structure>
   <crystal>
    <varray name="basis" >
     <v>       4.88428255       0.00000000       0.00000000 </v>
     <v>       2.44214127       4.22991277       0.00000000 </v>
     <v>       0.00000000       0.00000000      22.10741862 </v>
    </varray>
    <i name="volume">    456.74123834 </i>
    <varray name="rec_basis" >
     <v>       0.20473836      -0.11820575       0.00000000 </v>
     <v>      -0.00000000       0.23641149       0.00000000 </v>
     <v>       0.00000000       0.00000000       0.04523368 </v>
    </varray>
   </crystal>
   <varray name="positions" >
    <v>       0.30286415       0.49410690       0.00209390 </v>
    <v>       0.63619748       0.82744023       0.00209390 </v>
    <v>       0.96953081       0.16077357       0.00209390 </v>
    <v>       0.63619748       0.49410690       0.10624323 </v>
    <v>       0.96953081       0.82744023       0.10624323 </v>
    <v>       0.30286415       0.16077357       0.10624323 </v>
    <v>       0.30309201       0.49424958       0.32415322 </v>
    <v>       0.63591307       0.82738388       0.32197877 </v>
    <v>       0.96903930       0.16053132       0.32438296 </v>
    <v>       0.96915603       0.49427358       0.21552844 </v>
    <v>       0.30307393       0.82764996       0.21550019 </v>
    <v>       0.63627113       0.16037972       0.21542736 </v>
    <v>       0.77016291       0.99473716       0.43598077 </v>
    <v>       0.63753044       0.81099845       0.41260466 </v>
    <v>       0.99251506       0.82992612       0.44139663 </v>
   </varray>
  </structure>
  <varray name="forces" >
   <v>       0.00133002      -0.01254123      -0.12727790 </v>
   <v>      -0.01663197       0.00858355      -0.35945065 </v>
   <v>       0.00678028       0.01160778      -0.13443224 </v>
   <v>       0.04250666       0.07059872       0.18973739 </v>
   <v>      -0.06964895      -0.02087946       0.17180468 </v>
   <v>       0.02402067      -0.05705444       0.17810020 </v>
   <v>       0.03085141       0.01499967      -0.29226439 </v>
   <v>      -0.09732413      -0.09260471       0.41802125 </v>
   <v>      -0.09492670      -0.02580032      -0.12018083 </v>
   <v>       0.00232311      -0.04084236      -0.12661766 </v>
   <v>      -0.03300106       0.02874234      -0.15373720 </v>
   <v>       0.01503952       0.00531014      -0.18206868 </v>
   <v>      -0.02151803       0.01206397       0.24905554 </v>
   <v>       0.04094223       0.12605662       0.21906139 </v>
   <v>       0.16925694      -0.02824027       0.07024911 </v>
  </varray>
  <varray name="stress" >
   <v>     -24.83057956      -0.61881265       2.20586826 </v>
   <v>      -0.61881259     -24.76857097       0.80905178 </v>
   <v>       2.20586826       0.80905178      12.79881501 </v>
  </varray>
  <energy>
   <i name="e_fr_energy">    -75.38122362 </i>
   <i name="e_wo_entrp">    -75.37498980 </i>
   <i name="e_0_energy">     -0.02493530 </i>
  </energy>
  <time name="totalsc">  114.14  114.38</time>
 </calculation>
 <calculation>
  <scstep>
   <time name="dav">    7.58    7.59</time>
   <time name="total">    8.12    8.13</time>
   <dipole>
    <v name="dipole">      0.00000000       0.00000000      -0.01482928 </v>
    <i name="Tr[quadrupol]">   -558.74294165 </i>
    <i name="Echarged">      0.00000000 </i>
    <i name="Edipol_quadrupol">      0.00000000 </i>
    <i name="Eion">      0.00000000 </i>
   </dipole>
   <energy>
    <i name="alphaZ">    556.66831760 </i>
    <i name="ewald">  30708.19447911 </i>
    <i name="hartreedc"> -41438.99958226 </i>
    <i name="XCdc">    126.73473857 </i>
    <i name="pawpsdc">   8139.27999378 </i>
    <i name="pawaedc">  -7847.14819564 </i>
    <i name="eentropy">     -0.02492870 </i>
    <i name="bandstr">   -535.38242454 </i>
    <i name="atom">  10215.28807285 </i>
    <i name="e_fr_energy">    -75.38952924 </i>
    <i name="e_wo_entrp">    -75.36460054 </i>
    <i name="e_0_energy">    -75.38329706 </i>
   </energy>
  </scstep>
  <scstep>
   <time name="dav">    9.99   10.03</time>
   <time name="total">   10.53   10.57</time>
   <dipole>
    <v name="dipole">      0.00000000       0.00000000      -0.02036201 </v>
    <i name="Tr[quadrupol]">   -558.74006566 </i>
[...]
       <r>   -5.3246    1.0000 </r>
       <r>   -5.2974    1.0000 </r>
       <r>   -4.9331    1.0000 </r>
       <r>   -4.9077    1.0000 </r>
       <r>   -4.8583    1.0000 </r>
       <r>   -4.8132    1.0000 </r>
       <r>   -4.7807    1.0000 </r>
       <r>   -4.4345    1.0000 </r>
       <r>   -4.3379    1.0000 </r>
       <r>   -4.2680    1.0000 </r>
       <r>   -4.0738    1.0000 </r>
       <r>   -4.0130    1.0000 </r>
       <r>   -3.7718    1.0000 </r>
       <r>   -3.6895    1.0000 </r>
       <r>   -3.6630    1.0000 </r>
       <r>   -3.6347    1.0000 </r>
       <r>   -3.5659    1.0000 </r>
       <r>   -3.5381    1.0000 </r>
       <r>   -3.3366    1.0000 </r>
       <r>   -3.2940    1.0000 </r>
       <r>   -3.2049    1.0000 </r>
       <r>   -3.0743    1.0000 </r>
       <r>   -2.9431    1.0000 </r>
       <r>   -2.9040    1.0000 </r>
       <r>   -2.8280    1.0000 </r>
       <r>   -2.6072    1.0000 </r>
       <r>   -2.5758    1.0000 </r>
       <r>   -2.5000    1.0000 </r>
       <r>   -2.3618    1.0000 </r>
       <r>   -2.2912    1.0000 </r>
       <r>   -2.1989    1.0000 </r>
       <r>   -2.1681    1.0000 </r>
       <r>   -2.0092    1.0000 </r>
       <r>   -1.8118    1.0000 </r>
       <r>   -1.7499    1.0000 </r>
       <r>   -1.6347    1.0000 </r>
       <r>   -1.3735    1.0000 </r>
       <r>   -1.2309    1.0000 </r>
       <r>   -1.1891    1.0000 </r>
       <r>   -1.1522    1.0000 </r>
       <r>   -1.1263    1.0000 </r>
       <r>   -0.9647    1.0000 </r>
       <r>   -0.9366    1.0000 </r>
       <r>   -0.8847    1.0000 </r>
       <r>   -0.8263    0.9998 </r>
       <r>   -0.6462    0.9957 </r>
       <r>   -0.5956    0.9954 </r>
       <r>   -0.5591    0.9985 </r>
       <r>   -0.5166    1.0086 </r>
       <r>   -0.5013    1.0142 </r>
       <r>   -0.4272    1.0470 </r>
       <r>   -0.3090    0.9358 </r>
       <r>   -0.0221   -0.0515 </r>
       <r>    0.1372    0.0012 </r>
       <r>    0.1823    0.0048 </r>
       <r>    0.2113    0.0047 </r>
       <r>    0.3420    0.0008 </r>
       <r>    0.7131    0.0000 </r>
       <r>    0.8258    0.0000 </r>
       <r>    1.8513    0.0000 </r>
       <r>    2.2208    0.0000 </r>
       <r>    2.7264    0.0000 </r>
       <r>    3.6620    0.0000 </r>
       <r>    4.1816    0.0000 </r>
       <r>    4.9045    0.0000 </r>
       <r>    5.1839    0.0000 </r>
      </set>
     </set>
    </set>
   </array>
  </eigenvalues>
  <separator name="orbital magnetization" >
   <v name="MAGDIPOLOUT">      0.00000000      0.00000000      0.00000000</v>
  </separator>
  <dos>
   <i name="efermi">     -0.21000022 </i>
   <total>
    <array>
     <dimension dim="1">gridpoints</dimension>
     <dimension dim="2">spin</dimension>
     <field>energy</field>
     <field>total</field>
     <field>integrated</field>
     <set>
      <set comment="spin 1">
       <r>   -25.1337     0.0000     0.0000 </r>
       <r>   -25.0238     0.0000     0.0000 </r>
       <r>   -24.9138     0.0000     0.0000 </r>
       <r>   -24.8039     0.0000     0.0000 </r>
       <r>   -24.6940     0.0000     0.0000 </r>
       <r>   -24.5841     0.0000     0.0000 </r>
       <r>   -24.4741     0.0000     0.0000 </r>
       <r>   -24.3642     0.0000     0.0000 </r>
       <r>   -24.2543     0.0000     0.0000 </r>
       <r>   -24.1444     0.0000     0.0000 </r>
       <r>   -24.0344     0.0000     0.0000 </r>
       <r>   -23.9245     0.0000     0.0000 </r>
       <r>   -23.8146     0.0005     0.0001 </r>
       <r>   -23.7047     0.0085     0.0010 </r>
       <r>   -23.5947     0.0497     0.0065 </r>
       <r>   -23.4848    -0.0123     0.0051 </r>
       <r>   -23.3749    -0.6704    -0.0686 </r>
       <r>   -23.2650     0.3089    -0.0346 </r>
       <r>   -23.1550     6.8028     0.7131 </r>
       <r>   -23.0451     9.5791     1.7661 </r>
       <r>   -22.9352     3.0655     2.1031 </r>
       <r>   -22.8253    -0.7533     2.0203 </r>
       <r>   -22.7154    -0.2734     1.9902 </r>
       <r>   -22.6054     0.0624     1.9971 </r>
       <r>   -22.4955     0.0239     1.9997 </r>
       <r>   -22.3856     0.0024     2.0000 </r>
       <r>   -22.2757     0.0001     2.0000 </r>
       <r>   -22.1657     0.0000     2.0000 </r>
       <r>   -22.0558     0.0000     2.0000 </r>
       <r>   -21.9459     0.0000     2.0000 </r>
       <r>   -21.8360     0.0000     2.0000 </r>
       <r>   -21.7260     0.0000     2.0000 </r>
       <r>   -21.6161     0.0000     2.0000 </r>
       <r>   -21.5062     0.0000     2.0000 </r>
       <r>   -21.3963     0.0000     2.0000 </r>
       <r>   -21.2863     0.0000     2.0000 </r>
       <r>   -21.1764     0.0000     2.0000 </r>
       <r>   -21.0665     0.0000     2.0000 </r>
       <r>   -20.9566     0.0000     2.0000 </r>
       <r>   -20.8466     0.0000     2.0000 </r>
       <r>   -20.7367     0.0000     2.0000 </r>
       <r>   -20.6268     0.0000     2.0000 </r>
       <r>   -20.5169     0.0000     2.0000 </r>
       <r>   -20.4069     0.0000     2.0000 </r>
       <r>   -20.2970     0.0000     2.0000 </r>
       <r>   -20.1871     0.0000     2.0000 </r>
       <r>   -20.0772     0.0000     2.0000 </r>
       <r>   -19.9672     0.0000     2.0000 </r>
       <r>   -19.8573     0.0000     2.0000 </r>
       <r>   -19.7474     0.0000     2.0000 </r>
       <r>   -19.6375     0.0000     2.0000 </r>
       <r>   -19.5275     0.0000     2.0000 </r>
       <r>   -19.4176     0.0000     2.0000 </r>
       <r>   -19.3077     0.0000     2.0000 </r>
       <r>   -19.1978     0.0000     2.0000 </r>
       <r>   -19.0879     0.0000     2.0000 </r>
       <r>   -18.9779     0.0000     2.0000 </r>
       <r>   -18.8680     0.0000     2.0000 </r>
       <r>   -18.7581     0.0000     2.0000 </r>
       <r>   -18.6482     0.0000     2.0000 </r>
       <r>   -18.5382     0.0000     2.0000 </r>
       <r>   -18.4283     0.0000     2.0000 </r>
       <r>   -18.3184     0.0000     2.0000 </r>
       <r>   -18.2085     0.0000     2.0000 </r>
       <r>   -18.0985     0.0000     2.0000 </r>
       <r>   -17.9886     0.0000     2.0000 </r>
       <r>   -17.8787     0.0000     2.0000 </r>
       <r>   -17.7688     0.0000     2.0000 </r>
       <r>   -17.6588     0.0000     2.0000 </r>
       <r>   -17.5489     0.0000     2.0000 </r>
       <r>   -17.4390     0.0000     2.0000 </r>
       <r>   -17.3291     0.0002     2.0000 </r>
       <r>   -17.2191     0.0032     2.0004 </r>
       <r>   -17.1092     0.0284     2.0035 </r>
       <r>   -16.9993     0.0552     2.0096 </r>
       <r>   -16.8894    -0.3475     1.9714 </r>
       <r>   -16.7794    -0.6298     1.9021 </r>
       <r>   -16.6695     3.7572     2.3151 </r>
       <r>   -16.5596     9.7308     3.3848 </r>
       <r>   -16.4497     6.0951     4.0548 </r>
       <r>   -16.3397     0.0366     4.0588 </r>
       <r>   -16.2298    -0.5955     3.9934 </r>
       <r>   -16.1199     0.0082     3.9943 </r>
       <r>   -16.0100     0.0445     3.9992 </r>
       <r>   -15.9000     0.0071     4.0000 </r>
       <r>   -15.7901     0.0004     4.0000 </r>
       <r>   -15.6802     0.0000     4.0000 </r>
       <r>   -15.5703     0.0000     4.0000 </r>
       <r>   -15.4603     0.0000     4.0000 </r>
       <r>   -15.3504     0.0000     4.0000 </r>
       <r>   -15.2405     0.0000     4.0000 </r>
       <r>   -15.1306     0.0000     4.0000 </r>
       <r>   -15.0207     0.0000     4.0000 </r>
       <r>   -14.9107     0.0000     4.0000 </r>
       <r>   -14.8008     0.0000     4.0000 </r>
       <r>   -14.6909     0.0000     4.0000 </r>
       <r>   -14.5810     0.0000     4.0000 </r>
       <r>   -14.4710     0.0000     4.0000 </r>
       <r>   -14.3611     0.0000     4.0000 </r>
       <r>   -14.2512     0.0000     4.0000 </r>
       <r>   -14.1413     0.0000     4.0000 </r>
       <r>   -14.0313     0.0000     4.0000 </r>
       <r>   -13.9214     0.0000     4.0000 </r>
       <r>   -13.8115     0.0000     4.0000 </r>
       <r>   -13.7016     0.0000     4.0000 </r>
       <r>   -13.5916     0.0000     4.0000 </r>
       <r>   -13.4817     0.0000     4.0000 </r>
       <r>   -13.3718     0.0000     4.0000 </r>
       <r>   -13.2619     0.0000     4.0000 </r>
       <r>   -13.1519     0.0000     4.0000 </r>
       <r>   -13.0420     0.0000     4.0000 </r>
       <r>   -12.9321     0.0000     4.0000 </r>
       <r>   -12.8222     0.0000     4.0000 </r>
       <r>   -12.7122     0.0000     4.0000 </r>
       <r>   -12.6023     0.0000     4.0000 </r>
       <r>   -12.4924     0.0000     4.0000 </r>
       <r>   -12.3825     0.0000     4.0000 </r>
       <r>   -12.2725     0.0000     4.0000 </r>
       <r>   -12.1626     0.0000     4.0000 </r>
       <r>   -12.0527     0.0000     4.0000 </r>
       <r>   -11.9428     0.0000     4.0000 </r>
       <r>   -11.8328     0.0000     4.0000 </r>
       <r>   -11.7229     0.0000     4.0000 </r>
       <r>   -11.6130     0.0000     4.0000 </r>
       <r>   -11.5031     0.0000     4.0000 </r>
       <r>   -11.3932     0.0000     4.0000 </r>
       <r>   -11.2832     0.0000     4.0000 </r>
       <r>   -11.1733     0.0000     4.0000 </r>
       <r>   -11.0634     0.0000     4.0000 </r>
       <r>   -10.9535     0.0000     4.0000 </r>
       <r>   -10.8435     0.0000     4.0000 </r>
       <r>   -10.7336     0.0000     4.0000 </r>
       <r>   -10.6237     0.0000     4.0000 </r>
       <r>   -10.5138     0.0000     4.0000 </r>
       <r>   -10.4038     0.0000     4.0000 </r>
       <r>   -10.2939     0.0000     4.0000 </r>
       <r>   -10.1840     0.0000     4.0000 </r>
       <r>   -10.0741     0.0000     4.0000 </r>
       <r>    -9.9641     0.0000     4.0000 </r>
       <r>    -9.8542     0.0000     4.0000 </r>
       <r>    -9.7443     0.0002     4.0000 </r>
       <r>    -9.6344     0.0016     4.0002 </r>
       <r>    -9.5244     0.0027     4.0005 </r>
       <r>    -9.4145    -0.0169     3.9986 </r>
       <r>    -9.3046    -0.0225     3.9962 </r>
       <r>    -9.1947     0.1815     4.0161 </r>
       <r>    -9.0847     0.4886     4.0698 </r>
       <r>    -8.9748     0.6496     4.1412 </r>
       <r>    -8.8649     0.8583     4.2356 </r>
       <r>    -8.7550     0.6986     4.3124 </r>
       <r>    -8.6450     0.1919     4.3335 </r>
       <r>    -8.5351     2.2672     4.5827 </r>
       <r>    -8.4252     7.8423     5.4447 </r>
       <r>    -8.3153     8.4120     6.3694 </r>
       <r>    -8.2053     3.0719     6.7071 </r>
       <r>    -8.0954     0.3923     6.7502 </r>
       <r>    -7.9855     0.7221     6.8296 </r>
       <r>    -7.8756     1.2272     6.9645 </r>
       <r>    -7.7656     1.5418     7.1340 </r>
       <r>    -7.6557     1.9665     7.3501 </r>
       <r>    -7.5458     1.8682     7.5555 </r>
       <r>    -7.4359     1.6178     7.7333 </r>
       <r>    -7.3260     1.5275     7.9012 </r>
       <r>    -7.2160     1.7771     8.0966 </r>
       <r>    -7.1061     2.4594     8.3669 </r>
       <r>    -6.9962     2.7892     8.6735 </r>
       <r>    -6.8863     4.2824     9.1443 </r>
       <r>    -6.7763     7.7586     9.9971 </r>
       <r>    -6.6664     9.1752    11.0057 </r>
       <r>    -6.5565     9.2429    12.0217 </r>
       <r>    -6.4466    10.9485    13.2252 </r>
       <r>    -6.3366    13.8791    14.7509 </r>
       <r>    -6.2267    14.0515    16.2955 </r>
       <r>    -6.1168    11.1077    17.5165 </r>
       <r>    -6.0069    12.5761    18.8989 </r>
       <r>    -5.8969    18.0696    20.8852 </r>
       <r>    -5.7870    20.3881    23.1263 </r>
       <r>    -5.6771    19.8697    25.3105 </r>
       <r>    -5.5672    20.1335    27.5237 </r>
       <r>    -5.4572    20.1750    29.7414 </r>
       <r>    -5.3473    18.4397    31.7684 </r>
       <r>    -5.2374    15.1623    33.4351 </r>
       <r>    -5.1275    12.6699    34.8278 </r>
       <r>    -5.0175    13.0448    36.2617 </r>
       <r>    -4.9076    13.9117    37.7910 </r>
       <r>    -4.7977    16.6336    39.6194 </r>
       <r>    -4.6878    19.3799    41.7497 </r>
       <r>    -4.5778    18.4406    43.7768 </r>
       <r>    -4.4679    18.3674    45.7958 </r>
       <r>    -4.3580    21.6673    48.1776 </r>
       <r>    -4.2481    21.9609    50.5916 </r>
       <r>    -4.1381    16.6600    52.4230 </r>
       <r>    -4.0282    15.6288    54.1409 </r>
       <r>    -3.9183    17.9316    56.1121 </r>
       <r>    -3.8084    18.0012    58.0908 </r>
       <r>    -3.6984    19.2691    60.2090 </r>
       <r>    -3.5885    21.6810    62.5922 </r>
       <r>    -3.4786    23.5663    65.1828 </r>
       <r>    -3.3687    25.8400    68.0232 </r>
       <r>    -3.2588    27.4580    71.0415 </r>
       <r>    -3.1488    27.3999    74.0534 </r>
       <r>    -3.0389    25.7401    76.8829 </r>
       <r>    -2.9290    22.8441    79.3940 </r>
       <r>    -2.8191    19.0157    81.4843 </r>
       <r>    -2.7091    17.1449    83.3689 </r>
       <r>    -2.5992    18.0626    85.3544 </r>
       <r>    -2.4893    20.6187    87.6209 </r>
       <r>    -2.3794    24.3709    90.2999 </r>
       <r>    -2.2694    25.5369    93.1070 </r>
       <r>    -2.1595    24.1503    95.7617 </r>
       <r>    -2.0496    21.7173    98.1490 </r>
       <r>    -1.9397    18.4537   100.1775 </r>
       <r>    -1.8297    16.9041   102.0357 </r>
       <r>    -1.7198    17.9115   104.0046 </r>
       <r>    -1.6099    17.9789   105.9809 </r>
       <r>    -1.5000    16.2108   107.7628 </r>
       <r>    -1.3900    18.4389   109.7897 </r>
       <r>    -1.2801    22.9944   112.3174 </r>
       <r>    -1.1702    22.9860   114.8441 </r>
       <r>    -1.0603    20.8150   117.1322 </r>
       <r>    -0.9503    23.1302   119.6747 </r>
       <r>    -0.8404    26.3417   122.5703 </r>
       <r>    -0.7305    23.9124   125.1989 </r>
       <r>    -0.6206    22.4223   127.6636 </r>
       <r>    -0.5106    21.2274   129.9970 </r>
       <r>    -0.4007    18.1491   131.9921 </r>
       <r>    -0.2908    20.3740   134.2317 </r>
       <r>    -0.1809    21.3664   136.5804 </r>
       <r>    -0.0709    15.0923   138.2394 </r>
       <r>     0.0390     8.5888   139.1835 </r>
       <r>     0.1489     7.6761   140.0273 </r>
       <r>     0.2588    10.4244   141.1732 </r>
       <r>     0.3687     9.2361   142.1884 </r>
       <r>     0.4787     4.3858   142.6705 </r>
       <r>     0.5886     2.5173   142.9473 </r>
       <r>     0.6985     3.3536   143.3159 </r>
       <r>     0.8084     3.6824   143.7207 </r>
       <r>     0.9184     4.2793   144.1911 </r>
       <r>     1.0283     4.6768   144.7052 </r>
       <r>     1.1382     4.3082   145.1788 </r>
       <r>     1.2481     3.9989   145.6183 </r>
       <r>     1.3581     3.2868   145.9796 </r>
       <r>     1.4680     3.9782   146.4169 </r>
       <r>     1.5779     5.1741   146.9857 </r>
       <r>     1.6878     4.9271   147.5273 </r>
       <r>     1.7978     3.8520   147.9507 </r>
       <r>     1.9077     3.1146   148.2931 </r>
       <r>     2.0176     3.8979   148.7216 </r>
       <r>     2.1275     5.0222   149.2736 </r>
       <r>     2.2375     5.1541   149.8402 </r>
       <r>     2.3474     4.3641   150.3199 </r>
       <r>     2.4573     3.5725   150.7126 </r>
       <r>     2.5672     3.3242   151.0780 </r>
       <r>     2.6772     4.0370   151.5218 </r>
       <r>     2.7871     5.2619   152.1002 </r>
       <r>     2.8970     3.9473   152.5341 </r>
       <r>     3.0069     2.0029   152.7543 </r>
       <r>     3.1169     3.1208   153.0973 </r>
       <r>     3.2268     4.4692   153.5886 </r>
       <r>     3.3367     4.5945   154.0937 </r>
       <r>     3.4466     4.1620   154.5512 </r>
       <r>     3.5566     3.7659   154.9651 </r>
       <r>     3.6665     4.4939   155.4591 </r>
       <r>     3.7764     4.3648   155.9389 </r>
       <r>     3.8863     3.5976   156.3344 </r>
       <r>     3.9963     4.8789   156.8707 </r>
       <r>     4.1062     6.8517   157.6239 </r>
       <r>     4.2161     6.2576   158.3117 </r>
       <r>     4.3260     4.3397   158.7888 </r>
       <r>     4.4359     3.4494   159.1680 </r>
       <r>     4.5459     3.6335   159.5674 </r>
       <r>     4.6558     3.8767   159.9935 </r>
       <r>     4.7657     3.6333   160.3929 </r>
       <r>     4.8756     3.4892   160.7764 </r>
       <r>     4.9856     4.6985   161.2929 </r>
       <r>     5.0955     6.2727   161.9824 </r>
       <r>     5.2054     5.7471   162.6142 </r>
       <r>     5.3153     4.0879   163.0636 </r>
       <r>     5.4253     3.3560   163.4325 </r>
       <r>     5.5352     2.5864   163.7168 </r>
       <r>     5.6451     1.0227   163.8292 </r>
       <r>     5.7550     0.5065   163.8849 </r>
       <r>     5.8650     0.7543   163.9678 </r>
       <r>     5.9749     0.3469   164.0059 </r>
       <r>     6.0848    -0.0303   164.0026 </r>
       <r>     6.1947    -0.0301   163.9993 </r>
       <r>     6.3047     0.0036   163.9997 </r>
       <r>     6.4146     0.0027   164.0000 </r>
       <r>     6.5245     0.0004   164.0000 </r>
       <r>     6.6344     0.0000   164.0000 </r>
       <r>     6.7444     0.0000   164.0000 </r>
       <r>     6.8543     0.0000   164.0000 </r>
       <r>     6.9642     0.0000   164.0000 </r>
       <r>     7.0741     0.0000   164.0000 </r>
       <r>     7.1841     0.0000   164.0000 </r>
       <r>     7.2940     0.0000   164.0000 </r>
       <r>     7.4039     0.0000   164.0000 </r>
       <r>     7.5138     0.0000   164.0000 </r>
       <r>     7.6238     0.0000   164.0000 </r>
       <r>     7.7337     0.0000   164.0000 </r>
       <r>     7.8436     0.0000   164.0000 </r>
      </set>
     </set>
    </array>
   </total>
  </dos>
 </calculation>
 <structure name="finalpos" >
  <crystal>
   <varray name="basis" >
    <v>       4.88428255       0.00000000       0.00000000 </v>
    <v>       2.44214127       4.22991277       0.00000000 </v>
    <v>       0.00000000       0.00000000      22.10741862 </v>
   </varray>
   <i name="volume">    456.74123834 </i>
   <varray name="rec_basis" >
    <v>       0.20473836      -0.11820575       0.00000000 </v>
    <v>      -0.00000000       0.23641149       0.00000000 </v>
    <v>       0.00000000       0.00000000       0.04523368 </v>
   </varray>
  </crystal>
  <varray name="positions" >
   <v>       0.30286415       0.49410690       0.00209390 </v>
   <v>       0.63619748       0.82744023       0.00209390 </v>
   <v>       0.96953081       0.16077357       0.00209390 </v>
   <v>       0.63619748       0.49410690       0.10624323 </v>
   <v>       0.96953081       0.82744023       0.10624323 </v>
   <v>       0.30286415       0.16077357       0.10624323 </v>
   <v>       0.29658263       0.49149765       0.32347130 </v>
   <v>       0.63000439       0.82525864       0.32884518 </v>
   <v>       0.95981911       0.15706922       0.32453900 </v>
   <v>       0.96347947       0.49446410       0.21608322 </v>
   <v>       0.30129749       0.82723533       0.21628361 </v>
   <v>       0.63312720       0.15760936       0.21522173 </v>
   <v>       0.78575725       0.99606144       0.44371081 </v>
   <v>       0.64421846       0.82207443       0.42031103 </v>
   <v>       0.00902679       0.83023230       0.44853751 </v>
  </varray>
  <varray name="selective"  type="logical" >
   <v type="logical" >  F  F  F </v>
   <v type="logical" >  F  F  F </v>
   <v type="logical" >  F  F  F </v>
   <v type="logical" >  F  F  F </v>
   <v type="logical" >  F  F  F </v>
   <v type="logical" >  F  F  F </v>
   <v type="logical" >  T  T  T </v>
   <v type="logical" >  T  T  T </v>
   <v type="logical" >  T  T  T </v>
   <v type="logical" >  T  T  T </v>
   <v type="logical" >  T  T  T </v>
   <v type="logical" >  T  T  T </v>
   <v type="logical" >  T  T  T </v>
   <v type="logical" >  T  T  T </v>
   <v type="logical" >  T  T  T </v>
  </varray>
  <nose>
   <v>      -3.00000000       0.00000000       0.00010000       0.00010000 </v>
  </nose>
 </structure>
</modeling>
