<?xml version="1.0" encoding="ISO-8859-1"?>
<modeling>
 <generator>
  <i name="program" type="string">vasp </i>
  <i name="version" type="string">5.4.4.18Apr17-6-g9f103f2a35  </i>
  <i name="subversion" type="string">(build Apr 23 2019 15:17:44) complex            parallel </i>
  <i name="platform" type="string">MareNostrum4 </i>
  <i name="date" type="string">2019 05 10 </i>
  <i name="time" type="string">04:00:12 </i>
 </generator>
 <incar>
  <i type="int" name="ISTART">     0</i>
  <i type="string" name="PREC">normal</i>
  <i type="string" name="ALGO"> NORMAL</i>
  <i type="int" name="ICHARG">     2</i>
  <i type="int" name="INIWAV">     1</i>
  <i type="int" name="NELMIN">     8</i>
  <i type="int" name="IBRION">     2</i>
  <i name="EDIFF">      0.00000100</i>
  <i name="EDIFFG">     -0.01000000</i>
  <i type="int" name="NSW">  1500</i>
  <i name="ENCUT">    450.00000000</i>
  <i name="POTIM">      0.20000000</i>
  <i type="int" name="ISMEAR">     2</i>
  <i name="SIGMA">      0.20000000</i>
  <i type="logical" name="LWAVE"> F  </i>
  <i type="logical" name="LCHARG"> T  </i>
  <v type="int" name="KPOINT_BSE">    -1     0     0     0</v>
  <i type="string" name="GGA"> 91</i>
  <i type="logical" name="LDIPOL"> T  </i>
  <i type="int" name="IDIPOL">     3</i>
 </incar>
 <structure name="primitive_cell" >
  <crystal>
   <varray name="basis" >
    <v>       4.88428255       0.00000000       0.00000000 </v>
    <v>       2.44214127       4.22991277       0.00000000 </v>
    <v>       0.00000000       0.00000000      22.10741862 </v>
   </varray>
   <i name="volume">    456.74123834 </i>
   <varray name="rec_basis" >
    <v>       0.20473836      -0.11820575       0.00000000 </v>
    <v>      -0.00000000       0.23641149       0.00000000 </v>
    <v>       0.00000000       0.00000000       0.04523368 </v>
   </varray>
  </crystal>
  <varray name="positions" >
   <v>       0.30286415       0.49410690       0.00209390 </v>
   <v>      -0.36380252       0.49410690       0.10624323 </v>
   <v>      -0.03046919      -0.17255977       0.10624323 </v>
   <v>      -0.36380252      -0.17255977       0.00209390 </v>
   <v>      -0.03046919       0.16077357       0.00209390 </v>
   <v>       0.30286415       0.16077357       0.10624323 </v>
   <v>      -0.03046919       0.49410690       0.20822628 </v>
   <v>       0.30286415      -0.17255977       0.20822628 </v>
   <v>      -0.36380252       0.16077357       0.20822628 </v>
   <v>       0.30286415       0.49410690       0.31185932 </v>
   <v>      -0.36380252      -0.17255977       0.31185932 </v>
   <v>      -0.03046919       0.16077357       0.31185932 </v>
   <v>      -0.36147278      -0.18720688       0.40965579 </v>
   <v>      -0.00774698      -0.16987484       0.44138925 </v>
   <v>      -0.23128870      -0.00740884       0.43532491 </v>
  </varray>
 </structure>
 <varray name="primitive_index" >
  <v type="int" >        1 </v>
  <v type="int" >        4 </v>
  <v type="int" >        5 </v>
  <v type="int" >        2 </v>
  <v type="int" >        3 </v>
  <v type="int" >        6 </v>
  <v type="int" >       10 </v>
  <v type="int" >       11 </v>
  <v type="int" >       12 </v>
  <v type="int" >        7 </v>
  <v type="int" >        8 </v>
  <v type="int" >        9 </v>
  <v type="int" >       14 </v>
  <v type="int" >       15 </v>
  <v type="int" >       13 </v>
 </varray>
 <kpoints>
  <generation param="Monkhorst-Pack">
   <v type="int" name="divisions">       8        8        1 </v>
   <v name="usershift">      0.00000000       0.00000000       0.00000000 </v>
   <v name="genvec1">      0.12500000      -0.00000000       0.00000000 </v>
   <v name="genvec2">      0.00000000       0.12500000       0.00000000 </v>
   <v name="genvec3">      0.00000000       0.00000000       1.00000000 </v>
   <v name="shift">      0.50000000       0.50000000       0.00000000 </v>
  </generation>
  <varray name="kpointlist" >
   <v>       0.06250000       0.06250000       0.00000000 </v>
   <v>       0.00000000       0.06250000       0.00000000 </v>
   <v>      -0.06250000       0.00000000       0.00000000 </v>
   <v>       0.18750000       0.06250000       0.00000000 </v>
   <v>       0.12500000       0.18750000       0.00000000 </v>
   <v>      -0.06250000       0.12500000       0.00000000 </v>
   <v>       0.12500000      -0.06250000       0.00000000 </v>
   <v>      -0.06250000      -0.18750000       0.00000000 </v>
   <v>      -0.18750000      -0.12500000       0.00000000 </v>
   <v>       0.31250000       0.06250000       0.00000000 </v>
   <v>       0.25000000       0.31250000       0.00000000 </v>
   <v>      -0.06250000       0.25000000       0.00000000 </v>
   <v>       0.25000000      -0.06250000       0.00000000 </v>
   <v>      -0.06250000      -0.31250000       0.00000000 </v>
   <v>      -0.31250000      -0.25000000       0.00000000 </v>
   <v>       0.43750000       0.06250000       0.00000000 </v>
   <v>       0.37500000       0.43750000       0.00000000 </v>
   <v>      -0.06250000       0.37500000       0.00000000 </v>
   <v>       0.37500000      -0.06250000       0.00000000 </v>
   <v>      -0.06250000      -0.43750000       0.00000000 </v>
   <v>      -0.43750000      -0.37500000       0.00000000 </v>
   <v>      -0.43750000       0.06250000       0.00000000 </v>
   <v>       0.50000000      -0.43750000       0.00000000 </v>
   <v>      -0.06250000       0.50000000       0.00000000 </v>
   <v>       0.50000000      -0.06250000       0.00000000 </v>
   <v>      -0.06250000       0.43750000       0.00000000 </v>
   <v>       0.43750000       0.50000000       0.00000000 </v>
   <v>      -0.31250000       0.06250000       0.00000000 </v>
   <v>      -0.37500000      -0.31250000       0.00000000 </v>
   <v>      -0.06250000      -0.37500000       0.00000000 </v>
   <v>      -0.37500000      -0.06250000       0.00000000 </v>
   <v>      -0.06250000       0.31250000       0.00000000 </v>
   <v>       0.31250000       0.37500000       0.00000000 </v>
   <v>      -0.18750000       0.06250000       0.00000000 </v>
   <v>      -0.25000000      -0.18750000       0.00000000 </v>
   <v>      -0.06250000      -0.25000000       0.00000000 </v>
   <v>      -0.25000000      -0.06250000       0.00000000 </v>
   <v>      -0.06250000       0.18750000       0.00000000 </v>
   <v>       0.18750000       0.25000000       0.00000000 </v>
   <v>      -0.06250000       0.06250000       0.00000000 </v>
   <v>      -0.12500000      -0.06250000       0.00000000 </v>
   <v>      -0.06250000      -0.12500000       0.00000000 </v>
   <v>       0.18750000       0.18750000       0.00000000 </v>
   <v>      -0.00000000       0.18750000       0.00000000 </v>
   <v>      -0.18750000       0.00000000       0.00000000 </v>
   <v>       0.31250000       0.18750000       0.00000000 </v>
   <v>       0.12500000       0.31250000       0.00000000 </v>
   <v>      -0.18750000       0.12500000       0.00000000 </v>
   <v>       0.12500000      -0.18750000       0.00000000 </v>
   <v>      -0.18750000      -0.31250000       0.00000000 </v>
   <v>      -0.31250000      -0.12500000       0.00000000 </v>
   <v>       0.43750000       0.18750000       0.00000000 </v>
   <v>       0.25000000       0.43750000       0.00000000 </v>
   <v>      -0.18750000       0.25000000       0.00000000 </v>
   <v>       0.25000000      -0.18750000       0.00000000 </v>
   <v>      -0.18750000      -0.43750000       0.00000000 </v>
   <v>      -0.43750000      -0.25000000       0.00000000 </v>
   <v>      -0.43750000       0.18750000       0.00000000 </v>
   <v>       0.37500000      -0.43750000       0.00000000 </v>
   <v>      -0.18750000       0.37500000       0.00000000 </v>
   <v>       0.37500000      -0.18750000       0.00000000 </v>
   <v>      -0.18750000       0.43750000       0.00000000 </v>
   <v>       0.43750000      -0.37500000       0.00000000 </v>
   <v>      -0.31250000       0.18750000       0.00000000 </v>
   <v>       0.50000000      -0.31250000       0.00000000 </v>
   <v>      -0.18750000       0.50000000       0.00000000 </v>
   <v>       0.50000000      -0.18750000       0.00000000 </v>
   <v>      -0.18750000       0.31250000       0.00000000 </v>
   <v>       0.31250000       0.50000000       0.00000000 </v>
   <v>      -0.18750000       0.18750000       0.00000000 </v>
   <v>      -0.37500000      -0.18750000       0.00000000 </v>
   <v>      -0.18750000      -0.37500000       0.00000000 </v>
   <v>       0.31250000       0.31250000       0.00000000 </v>
   <v>      -0.00000000       0.31250000       0.00000000 </v>
   <v>      -0.31250000       0.00000000       0.00000000 </v>
   <v>       0.43750000       0.31250000       0.00000000 </v>
   <v>       0.12500000       0.43750000       0.00000000 </v>
   <v>      -0.31250000       0.12500000       0.00000000 </v>
   <v>       0.12500000      -0.31250000       0.00000000 </v>
   <v>      -0.31250000      -0.43750000       0.00000000 </v>
   <v>      -0.43750000      -0.12500000       0.00000000 </v>
   <v>      -0.43750000       0.31250000       0.00000000 </v>
   <v>       0.25000000      -0.43750000       0.00000000 </v>
   <v>      -0.31250000       0.25000000       0.00000000 </v>
   <v>       0.25000000      -0.31250000       0.00000000 </v>
   <v>      -0.31250000       0.43750000       0.00000000 </v>
   <v>       0.43750000      -0.25000000       0.00000000 </v>
   <v>      -0.31250000       0.31250000       0.00000000 </v>
   <v>       0.37500000      -0.31250000       0.00000000 </v>
   <v>      -0.31250000       0.37500000       0.00000000 </v>
   <v>       0.43750000       0.43750000       0.00000000 </v>
   <v>       0.00000000       0.43750000       0.00000000 </v>
   <v>      -0.43750000       0.00000000       0.00000000 </v>
   <v>      -0.43750000       0.43750000       0.00000000 </v>
   <v>       0.12500000      -0.43750000       0.00000000 </v>
   <v>      -0.43750000       0.12500000       0.00000000 </v>
  </varray>
  <varray name="weights" >
   <v>       0.01041667 </v>
   <v>       0.01041667 </v>
   <v>       0.01041667 </v>
   <v>       0.01041667 </v>
   <v>       0.01041667 </v>
   <v>       0.01041667 </v>
   <v>       0.01041667 </v>
   <v>       0.01041667 </v>
   <v>       0.01041667 </v>
   <v>       0.01041667 </v>
   <v>       0.01041667 </v>
   <v>       0.01041667 </v>
   <v>       0.01041667 </v>
   <v>       0.01041667 </v>
   <v>       0.01041667 </v>
   <v>       0.01041667 </v>
   <v>       0.01041667 </v>
   <v>       0.01041667 </v>
   <v>       0.01041667 </v>
   <v>       0.01041667 </v>
   <v>       0.01041667 </v>
   <v>       0.01041667 </v>
   <v>       0.01041667 </v>
   <v>       0.01041667 </v>
   <v>       0.01041667 </v>
   <v>       0.01041667 </v>
   <v>       0.01041667 </v>
   <v>       0.01041667 </v>
   <v>       0.01041667 </v>
   <v>       0.01041667 </v>
   <v>       0.01041667 </v>
   <v>       0.01041667 </v>
   <v>       0.01041667 </v>
   <v>       0.01041667 </v>
   <v>       0.01041667 </v>
   <v>       0.01041667 </v>
   <v>       0.01041667 </v>
   <v>       0.01041667 </v>
   <v>       0.01041667 </v>
   <v>       0.01041667 </v>
   <v>       0.01041667 </v>
   <v>       0.01041667 </v>
   <v>       0.01041667 </v>
   <v>       0.01041667 </v>
   <v>       0.01041667 </v>
   <v>       0.01041667 </v>
   <v>       0.01041667 </v>
   <v>       0.01041667 </v>
   <v>       0.01041667 </v>
   <v>       0.01041667 </v>
   <v>       0.01041667 </v>
   <v>       0.01041667 </v>
   <v>       0.01041667 </v>
   <v>       0.01041667 </v>
   <v>       0.01041667 </v>
   <v>       0.01041667 </v>
   <v>       0.01041667 </v>
   <v>       0.01041667 </v>
   <v>       0.01041667 </v>
   <v>       0.01041667 </v>
   <v>       0.01041667 </v>
   <v>       0.01041667 </v>
   <v>       0.01041667 </v>
   <v>       0.01041667 </v>
   <v>       0.01041667 </v>
   <v>       0.01041667 </v>
   <v>       0.01041667 </v>
   <v>       0.01041667 </v>
   <v>       0.01041667 </v>
   <v>       0.01041667 </v>
   <v>       0.01041667 </v>
   <v>       0.01041667 </v>
   <v>       0.01041667 </v>
   <v>       0.01041667 </v>
   <v>       0.01041667 </v>
   <v>       0.01041667 </v>
   <v>       0.01041667 </v>
   <v>       0.01041667 </v>
   <v>       0.01041667 </v>
   <v>       0.01041667 </v>
   <v>       0.01041667 </v>
   <v>       0.01041667 </v>
   <v>       0.01041667 </v>
   <v>       0.01041667 </v>
   <v>       0.01041667 </v>
   <v>       0.01041667 </v>
   <v>       0.01041667 </v>
   <v>       0.01041667 </v>
   <v>       0.01041667 </v>
   <v>       0.01041667 </v>
   <v>       0.01041667 </v>
   <v>       0.01041667 </v>
   <v>       0.01041667 </v>
   <v>       0.01041667 </v>
   <v>       0.01041667 </v>
   <v>       0.01041667 </v>
  </varray>
 </kpoints>
 <parameters>
  <separator name="general" >
   <i type="string" name="SYSTEM">unknown system</i>
   <i type="logical" name="LCOMPAT"> F  </i>
  </separator>
  <separator name="electronic" >
   <i type="string" name="PREC">normal</i>
   <i name="ENMAX">    450.00000000</i>
   <i name="ENAUG">    605.39200000</i>
   <i name="EDIFF">      0.00000100</i>
   <i type="int" name="IALGO">    38</i>
   <i type="int" name="IWAVPR">    11</i>
   <i type="int" name="NBANDS">    80</i>
   <i name="NELECT">    133.00000000</i>
   <i type="int" name="TURBO">     0</i>
   <i type="int" name="IRESTART">     0</i>
   <i type="int" name="NREBOOT">     0</i>
   <i type="int" name="NMIN">     0</i>
   <i name="EREF">      0.00000000</i>
   <separator name="electronic smearing" >
    <i type="int" name="ISMEAR">     2</i>
    <i name="SIGMA">      0.20000000</i>
    <i name="KSPACING">      0.50000000</i>
    <i type="logical" name="KGAMMA"> T  </i>
   </separator>
   <separator name="electronic projectors" >
    <i type="logical" name="LREAL"> F  </i>
    <v name="ROPT">      0.00000000      0.00000000      0.00000000      0.00000000</v>
    <i type="int" name="LMAXPAW">  -100</i>
    <i type="int" name="LMAXMIX">     2</i>
    <i type="logical" name="NLSPLINE"> F  </i>
   </separator>
   <separator name="electronic startup" >
    <i type="int" name="ISTART">     0</i>
    <i type="int" name="ICHARG">     2</i>
    <i type="int" name="INIWAV">     1</i>
   </separator>
   <separator name="electronic spin" >
    <i type="int" name="ISPIN">     1</i>
    <i type="logical" name="LNONCOLLINEAR"> F  </i>
    <v name="MAGMOM">      1.00000000      1.00000000      1.00000000      1.00000000      1.00000000      1.00000000      1.00000000      1.00000000      1.00000000      1.00000000      1.00000000      1.00000000      1.00000000      1.00000000      1.00000000</v>
    <i name="NUPDOWN">     -1.00000000</i>
    <i type="logical" name="LSORBIT"> F  </i>
    <v name="SAXIS">      0.00000000      0.00000000      1.00000000</v>
    <i type="logical" name="LSPIRAL"> F  </i>
    <v name="QSPIRAL">      0.00000000      0.00000000      0.00000000</v>
    <i type="logical" name="LZEROZ"> F  </i>
   </separator>
   <separator name="electronic exchange-correlation" >
    <i type="logical" name="LASPH"> F  </i>
    <i type="logical" name="LMETAGGA"> F  </i>
   </separator>
   <separator name="electronic convergence" >
    <i type="int" name="NELM">    60</i>
    <i type="int" name="NELMDL">    -5</i>
    <i type="int" name="NELMIN">     8</i>
    <i name="ENINI">    450.00000000</i>
    <separator name="electronic convergence detail" >
     <i type="logical" name="LDIAG"> T  </i>
     <i type="logical" name="LSUBROT"> F  </i>
     <i name="WEIMIN">      0.00100000</i>
     <i name="EBREAK">      0.00000000</i>
     <i name="DEPER">      0.30000000</i>
     <i type="int" name="NRMM">     4</i>
     <i name="TIME">      0.40000000</i>
    </separator>
   </separator>
   <separator name="electronic mixer" >
    <i name="AMIX">      0.40000000</i>
    <i name="BMIX">      1.00000000</i>
    <i name="AMIN">      0.10000000</i>
    <i name="AMIX_MAG">      1.60000000</i>
    <i name="BMIX_MAG">      1.00000000</i>
    <separator name="electronic mixer details" >
     <i type="int" name="IMIX">     4</i>
     <i type="logical" name="MIXFIRST"> F  </i>
     <i type="int" name="MAXMIX">   -45</i>
     <i name="WC">    100.00000000</i>
     <i type="int" name="INIMIX">     1</i>
     <i type="int" name="MIXPRE">     1</i>
     <i type="int" name="MREMOVE">     5</i>
    </separator>
   </separator>
   <separator name="electronic dipolcorrection" >
    <i type="logical" name="LDIPOL"> T  </i>
    <i type="logical" name="LMONO"> F  </i>
    <i type="int" name="IDIPOL">     3</i>
    <i name="EPSILON">      1.00000000</i>
    <v name="DIPOL">   -100.00000000   -100.00000000   -100.00000000</v>
    <i name="EFIELD">      0.00000000</i>
   </separator>
  </separator>
  <separator name="grids" >
   <i type="int" name="NGX">    28</i>
   <i type="int" name="NGY">    28</i>
   <i type="int" name="NGZ">   120</i>
   <i type="int" name="NGXF">    56</i>
   <i type="int" name="NGYF">    56</i>
   <i type="int" name="NGZF">   240</i>
   <i type="logical" name="ADDGRID"> F  </i>
  </separator>
  <separator name="ionic" >
   <i type="int" name="NSW">  1500</i>
   <i type="int" name="IBRION">     2</i>
   <i type="int" name="MDALGO">     0</i>
   <i type="int" name="ISIF">     2</i>
   <i name="PSTRESS">      0.00000000</i>
   <i name="EDIFFG">     -0.01000000</i>
   <i type="int" name="NFREE">     1</i>
   <i name="POTIM">      0.20000000</i>
   <i name="SMASS">     -3.00000000</i>
   <i name="SCALEE">      1.00000000</i>
  </separator>
  <separator name="ionic md" >
   <i name="TEBEG">      0.00010000</i>
   <i name="TEEND">      0.00010000</i>
   <i type="int" name="NBLOCK">     1</i>
   <i type="int" name="KBLOCK">  1500</i>
   <i type="int" name="NPACO">   256</i>
   <i name="APACO">     16.00000000</i>
  </separator>
  <separator name="symmetry" >
   <i type="int" name="ISYM">     2</i>
   <i name="SYMPREC">      0.00001000</i>
  </separator>
  <separator name="dos" >
   <i type="int" name="LORBIT">     0</i>
   <v name="RWIGS">     -1.00000000     -1.00000000     -1.00000000     -1.00000000</v>
   <i type="int" name="NEDOS">   301</i>
   <i name="EMIN">     10.00000000</i>
   <i name="EMAX">    -10.00000000</i>
   <i name="EFERMI">      0.00000000</i>
  </separator>
  <separator name="writing" >
   <i type="int" name="NWRITE">     2</i>
   <i type="logical" name="LWAVE"> F  </i>
   <i type="logical" name="LDOWNSAMPLE"> F  </i>
   <i type="logical" name="LCHARG"> T  </i>
   <i type="logical" name="LPARD"> F  </i>
   <i type="logical" name="LVTOT"> F  </i>
   <i type="logical" name="LVHAR"> F  </i>
   <i type="logical" name="LELF"> F  </i>
   <i type="logical" name="LOPTICS"> F  </i>
   <v name="STM">      0.00000000      0.00000000      0.00000000      0.00000000      0.00000000      0.00000000      0.00000000</v>
  </separator>
  <separator name="performance" >
   <i type="int" name="NPAR">     2</i>
   <i type="int" name="NSIM">     4</i>
   <i type="int" name="NBLK">    -1</i>
   <i type="logical" name="LPLANE"> T  </i>
   <i type="logical" name="LSCALAPACK"> T  </i>
   <i type="logical" name="LSCAAWARE"> F  </i>
   <i type="logical" name="LSCALU"> F  </i>
   <i type="logical" name="LASYNC"> F  </i>
   <i type="logical" name="LORBITALREAL"> F  </i>
  </separator>
  <separator name="miscellaneous" >
   <i type="int" name="IDIOT">     3</i>
   <i type="int" name="ISPECIAL">     0</i>
   <i type="logical" name="LMUSIC"> F  </i>
   <v name="POMASS">    195.08000000    106.42000000     16.00000000      1.00000000</v>
   <v name="DARWINR">      0.00000000      0.00000000      0.00000000      0.00000000</v>
   <v name="DARWINV">      1.00000000      1.00000000      1.00000000      1.00000000</v>
   <i type="logical" name="LCORR"> T  </i>
  </separator>
  <i type="logical" name="GGA_COMPAT"> T  </i>
  <i type="logical" name="LBERRY"> F  </i>
  <i type="int" name="ICORELEVEL">     0</i>
  <i type="logical" name="LDAU"> F  </i>
  <i type="int" name="I_CONSTRAINED_M">     0</i>
  <separator name="electronic exchange-correlation" >
   <i type="string" name="GGA">91</i>
   <i type="int" name="VOSKOWN">     0</i>
   <i type="logical" name="LHFCALC"> F  </i>
   <i type="string" name="PRECFOCK"></i>
   <i type="logical" name="LSYMGRAD"> F  </i>
   <i type="logical" name="LHFONE"> F  </i>
   <i type="logical" name="LRHFCALC"> F  </i>
   <i type="logical" name="LTHOMAS"> F  </i>
   <i type="logical" name="LMODELHF"> F  </i>
   <i name="ENCUT4O">     -1.00000000</i>
   <i type="int" name="EXXOEP">     0</i>
   <i type="int" name="FOURORBIT">     0</i>
   <i name="AEXX">      0.00000000</i>
   <i name="HFALPHA">      0.00000000</i>
   <i name="MCALPHA">      0.00000000</i>
   <i name="ALDAX">      1.00000000</i>
   <i name="AGGAX">      1.00000000</i>
   <i name="ALDAC">      1.00000000</i>
   <i name="AGGAC">      1.00000000</i>
   <i type="int" name="NKREDX">     1</i>
   <i type="int" name="NKREDY">     1</i>
   <i type="int" name="NKREDZ">     1</i>
   <i type="logical" name="SHIFTRED"> F  </i>
   <i type="logical" name="ODDONLY"> F  </i>
   <i type="logical" name="EVENONLY"> F  </i>
   <i type="int" name="LMAXFOCK">     0</i>
   <i type="int" name="NMAXFOCKAE">     0</i>
   <i type="logical" name="LFOCKAEDFT"> F  </i>
   <i name="HFSCREEN">      0.00000000</i>
   <i name="HFSCREENC">      0.00000000</i>
   <i type="int" name="NBANDSGWLOW">     0</i>
  </separator>
  <separator name="vdW DFT" >
   <i type="logical" name="LUSE_VDW"> F  </i>
   <i name="Zab_VDW">     -0.84910000</i>
   <i name="PARAM1">      0.12340000</i>
   <i name="PARAM2">      1.00000000</i>
   <i name="PARAM3">      0.00000000</i>
  </separator>
  <separator name="model GW" >
   <i type="int" name="MODEL_GW">     0</i>
   <i name="MODEL_EPS0">     18.26964953</i>
   <i name="MODEL_ALPHA">      1.00000000</i>
  </separator>
  <separator name="linear response parameters" >
   <i type="logical" name="LEPSILON"> F  </i>
   <i type="logical" name="LRPA"> F  </i>
   <i type="logical" name="LNABLA"> F  </i>
   <i type="logical" name="LVEL"> F  </i>
   <i type="int" name="KINTER">     0</i>
   <i name="CSHIFT">      0.10000000</i>
   <i name="OMEGAMAX">     -1.00000000</i>
   <i name="DEG_THRESHOLD">      0.00200000</i>
   <i name="RTIME">     -0.10000000</i>
   <i name="WPLASMAI">      0.00000000</i>
   <v name="DFIELD">      0.00000000      0.00000000      0.00000000</v>
   <v name="WPLASMA">      0.00000000      0.00000000      0.00000000      0.00000000      0.00000000      0.00000000      0.00000000      0.00000000      0.00000000</v>
  </separator>
  <separator name="orbital magnetization" >
   <i type="logical" name="NUCIND"> F  </i>
   <v name="MAGPOS">      0.00000000      0.00000000      0.00000000</v>
   <i type="logical" name="LNICSALL"> T  </i>
   <i type="logical" name="ORBITALMAG"> F  </i>
   <i type="logical" name="LMAGBLOCH"> F  </i>
   <i type="logical" name="LCHIMAG"> F  </i>
   <i type="logical" name="LGAUGE"> T  </i>
   <i type="int" name="MAGATOM">     0</i>
   <v name="MAGDIPOL">      0.00000000      0.00000000      0.00000000</v>
   <v name="AVECCONST">      0.00000000      0.00000000      0.00000000</v>
  </separator>
  <separator name="response functions" >
   <i type="logical" name="LADDER"> F  </i>
   <i type="logical" name="LRPAFORCE"> F  </i>
   <i type="logical" name="LFXC"> F  </i>
   <i type="logical" name="LHARTREE"> T  </i>
   <i type="int" name="IBSE">     0</i>
   <v type="int" name="KPOINT">    -1     0     0     0</v>
   <i type="logical" name="LTCTE"> F  </i>
   <i type="logical" name="LTETE"> F  </i>
   <i type="logical" name="LTRIPLET"> F  </i>
   <i type="logical" name="LFXCEPS"> F  </i>
   <i type="logical" name="LFXHEG"> F  </i>
   <i type="int" name="NATURALO">     2</i>
   <i type="logical" name="L2ORDER"> F  </i>
   <i type="logical" name="LMP2LT"> F  </i>
   <i type="logical" name="LUSEW"> F  </i>
   <i name="ENCUTGW">     -2.00000000</i>
   <i name="ENCUTGWSOFT">     -2.00000000</i>
   <i name="ENCUTLF">     -1.00000000</i>
   <i type="int" name="LMAXMP2">    -1</i>
   <i name="SCISSOR">      0.00000000</i>
   <i type="int" name="NOMEGA">     0</i>
   <i type="int" name="NOMEGAR">     0</i>
   <i type="int" name="NBANDSGW">    -1</i>
   <i type="int" name="NBANDSO">    -1</i>
   <i type="int" name="NBANDSV">    -1</i>
   <i type="int" name="NELM">     1</i>
   <i type="int" name="NELMHF">     1</i>
   <i type="int" name="DIM">     3</i>
   <i type="int" name="ANTIRES">     0</i>
   <i name="OMEGAMAX">    -30.00000000</i>
   <i name="OMEGAMIN">    -30.00000000</i>
   <i name="OMEGATL">   -200.00000000</i>
   <i type="int" name="OMEGAGRID">   140</i>
   <i name="CSHIFT">     -0.10000000</i>
   <i type="logical" name="SELFENERGY"> F  </i>
   <i type="logical" name="LSPECTRAL"> F  </i>
   <i type="logical" name="LSPECTRALGW"> F  </i>
   <i type="logical" name="LSINGLES"> F  </i>
   <i type="logical" name="LFERMIGW"> F  </i>
   <i type="logical" name="ODDONLYGW"> F  </i>
   <i type="logical" name="EVENONLYGW"> F  </i>
   <i type="int" name="NKREDLFX">     1</i>
   <i type="int" name="NKREDLFY">     1</i>
   <i type="int" name="NKREDLFZ">     1</i>
   <i type="int" name="MAXMEM">  2800</i>
   <i type="int" name="TELESCOPE">     0</i>
   <i type="int" name="TAUPAR">     1</i>
   <i type="int" name="OMEGAPAR">    -1</i>
   <i name="LAMBDA">      1.00000000</i>
  </separator>
  <separator name="External order field" >
   <i name="OFIELD_KAPPA">      0.00000000</i>
   <v name="OFIELD_K">      0.00000000      0.00000000      0.00000000</v>
   <i name="OFIELD_Q6_NEAR">      0.00000000</i>
   <i name="OFIELD_Q6_FAR">      0.00000000</i>
   <i name="OFIELD_A">      0.00000000</i>
  </separator>
 </parameters>
 <atominfo>
  <atoms>      15 </atoms>
  <types>       4 </types>
  <array name="atoms" >
   <dimension dim="1">ion</dimension>
   <field type="string">element</field>
   <field type="int">atomtype</field>
   <set>
    <rc><c>Pt</c><c>   1</c></rc>
    <rc><c>Pt</c><c>   1</c></rc>
    <rc><c>Pt</c><c>   1</c></rc>
    <rc><c>Pt</c><c>   1</c></rc>
    <rc><c>Pt</c><c>   1</c></rc>
    <rc><c>Pt</c><c>   1</c></rc>
    <rc><c>Pt</c><c>   1</c></rc>
    <rc><c>Pt</c><c>   1</c></rc>
    <rc><c>Pt</c><c>   1</c></rc>
    <rc><c>Pd</c><c>   2</c></rc>
    <rc><c>Pd</c><c>   2</c></rc>
    <rc><c>Pd</c><c>   2</c></rc>
    <rc><c>O </c><c>   3</c></rc>
    <rc><c>O </c><c>   3</c></rc>
    <rc><c>H </c><c>   4</c></rc>
   </set>
  </array>
  <array name="atomtypes" >
   <dimension dim="1">type</dimension>
   <field type="int">atomspertype</field>
   <field type="string">element</field>
   <field>mass</field>
   <field>valence</field>
   <field type="string">pseudopotential</field>
   <set>
    <rc><c>   9</c><c>Pt</c><c>    195.08000000</c><c>     10.00000000</c><c> PAW_PBE Pt 05Jan2001                   </c></rc>
    <rc><c>   3</c><c>Pd</c><c>    106.42000000</c><c>     10.00000000</c><c> PAW_PBE Pd 05Jan2001                   </c></rc>
    <rc><c>   2</c><c>O </c><c>     16.00000000</c><c>      6.00000000</c><c> PAW_PBE O 08Apr2002                    </c></rc>
    <rc><c>   1</c><c>H </c><c>      1.00000000</c><c>      1.00000000</c><c> PAW_PBE H 15Jun2001                    </c></rc>
   </set>
  </array>
 </atominfo>
 <structure name="initialpos" >
  <crystal>
   <varray name="basis" >
    <v>       4.88428255       0.00000000       0.00000000 </v>
    <v>       2.44214127       4.22991277       0.00000000 </v>
    <v>       0.00000000       0.00000000      22.10741862 </v>
   </varray>
   <i name="volume">    456.74123834 </i>
   <varray name="rec_basis" >
    <v>       0.20473836      -0.11820575       0.00000000 </v>
    <v>      -0.00000000       0.23641149       0.00000000 </v>
    <v>       0.00000000       0.00000000       0.04523368 </v>
   </varray>
  </crystal>
  <varray name="positions" >
   <v>       0.30286415       0.49410690       0.00209390 </v>
   <v>       0.63619748       0.82744023       0.00209390 </v>
   <v>       0.96953081       0.16077357       0.00209390 </v>
   <v>       0.63619748       0.49410690       0.10624323 </v>
   <v>       0.96953081       0.82744023       0.10624323 </v>
   <v>       0.30286415       0.16077357       0.10624323 </v>
   <v>       0.30286415       0.49410690       0.31185932 </v>
   <v>       0.63619748       0.82744023       0.31185932 </v>
   <v>       0.96953081       0.16077357       0.31185932 </v>
   <v>       0.96953081       0.49410690       0.20822628 </v>
   <v>       0.30286415       0.82744023       0.20822628 </v>
   <v>       0.63619748       0.16077357       0.20822628 </v>
   <v>       0.76871130       0.99259116       0.43532491 </v>
   <v>       0.63852722       0.81279312       0.40965579 </v>
   <v>       0.99225302       0.83012516       0.44138925 </v>
  </varray>
  <varray name="selective"  type="logical" >
   <v type="logical" >  F  F  F </v>
   <v type="logical" >  F  F  F </v>
   <v type="logical" >  F  F  F </v>
   <v type="logical" >  F  F  F </v>
   <v type="logical" >  F  F  F </v>
   <v type="logical" >  F  F  F </v>
   <v type="logical" >  T  T  T </v>
   <v type="logical" >  T  T  T </v>
   <v type="logical" >  T  T  T </v>
   <v type="logical" >  T  T  T </v>
   <v type="logical" >  T  T  T </v>
   <v type="logical" >  T  T  T </v>
   <v type="logical" >  T  T  T </v>
   <v type="logical" >  T  T  T </v>
   <v type="logical" >  T  T  T </v>
  </varray>
  <nose>
   <v>      -3.00000000       0.00000000       0.00010000       0.00010000 </v>
  </nose>
 </structure>
 <calculation>
  <scstep>
   <time name="dav">    7.47    7.57</time>
   <time name="total">    7.53    7.67</time>
   <dipole>
    <v name="dipole">      0.00000000       0.00000000      -0.00011072 </v>
    <i name="Tr[quadrupol]">   -543.93503569 </i>
    <i name="Echarged">      0.00000000 </i>
    <i name="Edipol_quadrupol">      0.00000000 </i>
    <i name="Eion">      0.00000000 </i>
   </dipole>
   <energy>
    <i name="alphaZ">    514.43699917 </i>
    <i name="ewald">  30401.95029082 </i>
    <i name="hartreedc"> -40840.26754376 </i>
    <i name="XCdc">     -4.22349415 </i>
    <i name="pawpsdc">   7685.87308649 </i>
    <i name="pawaedc">  -7248.96256123 </i>
    <i name="eentropy">      0.00547824 </i>
    <i name="bandstr">    924.78699838 </i>
    <i name="atom">   9868.27088960 </i>
    <i name="e_fr_energy">   1301.87014357 </i>
    <i name="e_wo_entrp">   1301.86466532 </i>
    <i name="e_0_energy">   1301.86877401 </i>
   </energy>
  </scstep>
  <scstep>
   <time name="dav">    7.40    7.41</time>
   <time name="total">    7.42    7.42</time>
   <dipole>
    <v name="dipole">      0.00000000       0.00000000      -0.00011072 </v>
    <i name="Tr[quadrupol]">   -543.93503569 </i>
    <i name="Echarged">      0.00000000 </i>
    <i name="Edipol_quadrupol">      0.00000000 </i>
    <i name="Eion">      0.00000000 </i>
   </dipole>
   <energy>
    <i name="e_fr_energy">     63.72161092 </i>
    <i name="e_wo_entrp">     63.72312155 </i>
    <i name="e_0_energy">     63.72198858 </i>
   </energy>
  </scstep>
  <scstep>
   <time name="dav">   12.31   12.32</time>
   <time name="total">   12.33   12.33</time>
   <dipole>
    <v name="dipole">      0.00000000       0.00000000      -0.00011072 </v>
    <i name="Tr[quadrupol]">   -543.93503569 </i>
    <i name="Echarged">      0.00000000 </i>
    <i name="Edipol_quadrupol">      0.00000000 </i>
    <i name="Eion">      0.00000000 </i>
   </dipole>
   <energy>
    <i name="e_fr_energy">    -79.45373992 </i>
    <i name="e_wo_entrp">    -79.44970297 </i>
    <i name="e_0_energy">    -79.45273068 </i>
   </energy>
  </scstep>
  <scstep>
   <time name="dav">    9.02    9.02</time>
   <time name="total">    9.04    9.04</time>
   <dipole>
    <v name="dipole">      0.00000000       0.00000000      -0.00011072 </v>
    <i name="Tr[quadrupol]">   -543.93503569 </i>
    <i name="Echarged">      0.00000000 </i>
    <i name="Edipol_quadrupol">      0.00000000 </i>
    <i name="Eion">      0.00000000 </i>
   </dipole>
   <energy>
    <i name="e_fr_energy">    -89.61749703 </i>
    <i name="e_wo_entrp">    -89.61195925 </i>
    <i name="e_0_energy">    -89.61611258 </i>
   </energy>
  </scstep>
  <scstep>
   <time name="dav">    9.78    9.78</time>
   <time name="total">   10.28   10.30</time>
   <dipole>
    <v name="dipole">      0.00000000       0.00000000      -0.00011072 </v>
    <i name="Tr[quadrupol]">   -543.93503569 </i>
    <i name="Echarged">      0.00000000 </i>
    <i name="Edipol_quadrupol">      0.00000000 </i>
    <i name="Eion">      0.00000000 </i>
   </dipole>
   <energy>
    <i name="e_fr_energy">    -89.94281705 </i>
    <i name="e_wo_entrp">    -89.93776359 </i>
    <i name="e_0_energy">    -89.94155369 </i>
   </energy>
  </scstep>
  <scstep>
   <time name="dav">   12.32   12.33</time>
   <time name="total">   12.83   12.85</time>
   <dipole>
    <v name="dipole">      0.00000000       0.00000000       1.22807515 </v>
    <i name="Tr[quadrupol]">   -544.21074022 </i>
    <i name="Echarged">      0.00000000 </i>
    <i name="Edipol_quadrupol">      0.00000000 </i>
    <i name="Eion">      0.00000000 </i>
   </dipole>
   <energy>
    <i name="e_fr_energy">   -143.85374512 </i>
    <i name="e_wo_entrp">   -143.85389004 </i>
    <i name="e_0_energy">   -143.85378135 </i>
   </energy>
  </scstep>
  <scstep>
   <time name="dav">   12.00   12.01</time>
   <time name="total">   12.52   12.52</time>
   <dipole>
    <v name="dipole">      0.00000000       0.00000000      -0.42294811 </v>
    <i name="Tr[quadrupol]">   -543.47804698 </i>
    <i name="Echarged">      0.00000000 </i>
    <i name="Edipol_quadrupol">      0.00000000 </i>
    <i name="Eion">      0.00000000 </i>
   </dipole>
   <energy>
    <i name="e_fr_energy">    -89.84390500 </i>
    <i name="e_wo_entrp">    -89.83274769 </i>
    <i name="e_0_energy">    -89.84111567 </i>
   </energy>
  </scstep>
  <scstep>
   <time name="dav">   10.08   10.08</time>
   <time name="total">   10.60   10.61</time>
   <dipole>
    <v name="dipole">      0.00000000       0.00000000      -0.01941791 </v>
    <i name="Tr[quadrupol]">   -543.68510249 </i>
    <i name="Echarged">      0.00000000 </i>
    <i name="Edipol_quadrupol">      0.00000000 </i>
    <i name="Eion">      0.00000000 </i>
   </dipole>
   <energy>
    <i name="e_fr_energy">    -83.50100722 </i>
    <i name="e_wo_entrp">    -83.50246073 </i>
    <i name="e_0_energy">    -83.50137060 </i>
   </energy>
  </scstep>
  <scstep>
   <time name="dav">   10.12   10.12</time>
   <time name="total">   10.64   10.65</time>
   <dipole>
    <v name="dipole">      0.00000000       0.00000000      -0.06702860 </v>
    <i name="Tr[quadrupol]">   -542.36603846 </i>
    <i name="Echarged">      0.00000000 </i>
    <i name="Edipol_quadrupol">      0.00000000 </i>
    <i name="Eion">      0.00000000 </i>
   </dipole>
   <energy>
    <i name="e_fr_energy">    -82.88041849 </i>
    <i name="e_wo_entrp">    -82.87697672 </i>
    <i name="e_0_energy">    -82.87955805 </i>
   </energy>
  </scstep>
  <scstep>
   <time name="dav">   10.51   10.51</time>
   <time name="total">   11.02   11.03</time>
   <dipole>
    <v name="dipole">      0.00000000       0.00000000      -0.06344465 </v>
    <i name="Tr[quadrupol]">   -543.50574256 </i>
    <i name="Echarged">      0.00000000 </i>
    <i name="Edipol_quadrupol">      0.00000000 </i>
    <i name="Eion">      0.00000000 </i>
   </dipole>
   <energy>
    <i name="e_fr_energy">    -82.16325234 </i>
    <i name="e_wo_entrp">    -82.15974582 </i>
    <i name="e_0_energy">    -82.16237571 </i>
   </energy>
  </scstep>
  <scstep>
   <time name="dav">    8.64    8.64</time>
   <time name="total">    9.15    9.16</time>
   <dipole>
    <v name="dipole">      0.00000000       0.00000000      -0.04495266 </v>
    <i name="Tr[quadrupol]">   -543.41407884 </i>
    <i name="Echarged">      0.00000000 </i>
    <i name="Edipol_quadrupol">      0.00000000 </i>
    <i name="Eion">      0.00000000 </i>
   </dipole>
   <energy>
    <i name="e_fr_energy">    -81.93683165 </i>
    <i name="e_wo_entrp">    -81.94406582 </i>
    <i name="e_0_energy">    -81.93864020 </i>
   </energy>
  </scstep>
  <scstep>
   <time name="dav">   10.00   10.01</time>
   <time name="total">   10.52   10.52</time>
   <dipole>
    <v name="dipole">      0.00000000       0.00000000      -0.03486133 </v>
    <i name="Tr[quadrupol]">   -543.59735396 </i>
    <i name="Echarged">      0.00000000 </i>
    <i name="Edipol_quadrupol">      0.00000000 </i>
    <i name="Eion">      0.00000000 </i>
   </dipole>
   <energy>
    <i name="e_fr_energy">    -81.87016241 </i>
    <i name="e_wo_entrp">    -81.87067483 </i>
    <i name="e_0_energy">    -81.87029052 </i>
   </energy>
  </scstep>
  <scstep>
   <time name="dav">   10.89   10.90</time>
   <time name="total">   11.42   11.42</time>
   <dipole>
    <v name="dipole">      0.00000000       0.00000000      -0.01689753 </v>
    <i name="Tr[quadrupol]">   -543.78168561 </i>
    <i name="Echarged">      0.00000000 </i>
    <i name="Edipol_quadrupol">      0.00000000 </i>
    <i name="Eion">      0.00000000 </i>
   </dipole>
   <energy>
    <i name="e_fr_energy">    -81.75840241 </i>
    <i name="e_wo_entrp">    -81.76491137 </i>
    <i name="e_0_energy">    -81.76002965 </i>
   </energy>
  </scstep>
  <scstep>
   <time name="dav">    9.65    9.66</time>
   <time name="total">   10.18   10.18</time>
   <dipole>
    <v name="dipole">      0.00000000       0.00000000      -0.01855740 </v>
    <i name="Tr[quadrupol]">   -543.92483558 </i>
    <i name="Echarged">      0.00000000 </i>
    <i name="Edipol_quadrupol">      0.00000000 </i>
    <i name="Eion">      0.00000000 </i>
   </dipole>
   <energy>
    <i name="e_fr_energy">    -81.75690084 </i>
    <i name="e_wo_entrp">    -81.76276666 </i>
    <i name="e_0_energy">    -81.75836729 </i>
   </energy>
  </scstep>
  <scstep>
   <time name="dav">    9.42    9.43</time>
   <time name="total">    9.95    9.96</time>
   <dipole>
    <v name="dipole">      0.00000000       0.00000000      -0.01767753 </v>
    <i name="Tr[quadrupol]">   -544.00569052 </i>
    <i name="Echarged">      0.00000000 </i>
    <i name="Edipol_quadrupol">      0.00000000 </i>
    <i name="Eion">      0.00000000 </i>
   </dipole>
   <energy>
    <i name="e_fr_energy">    -81.74725933 </i>
    <i name="e_wo_entrp">    -81.75349218 </i>
    <i name="e_0_energy">    -81.74881755 </i>
   </energy>
  </scstep>
  <scstep>
   <time name="dav">    9.63    9.64</time>
   <time name="total">   10.16   10.16</time>
   <dipole>
    <v name="dipole">      0.00000000       0.00000000      -0.01218439 </v>
    <i name="Tr[quadrupol]">   -544.12476924 </i>
    <i name="Echarged">      0.00000000 </i>
    <i name="Edipol_quadrupol">      0.00000000 </i>
    <i name="Eion">      0.00000000 </i>
   </dipole>
   <energy>
    <i name="e_fr_energy">    -81.74537604 </i>
    <i name="e_wo_entrp">    -81.75023545 </i>
    <i name="e_0_energy">    -81.74659089 </i>
   </energy>
  </scstep>
  <scstep>
   <time name="dav">    9.71    9.78</time>
   <time name="total">   10.23   10.30</time>
   <dipole>
    <v name="dipole">      0.00000000       0.00000000      -0.01138702 </v>
    <i name="Tr[quadrupol]">   -544.20056171 </i>
    <i name="Echarged">      0.00000000 </i>
    <i name="Edipol_quadrupol">      0.00000000 </i>
    <i name="Eion">      0.00000000 </i>
   </dipole>
   <energy>
    <i name="e_fr_energy">    -81.74370114 </i>
    <i name="e_wo_entrp">    -81.74909543 </i>
    <i name="e_0_energy">    -81.74504971 </i>
   </energy>
  </scstep>
  <scstep>
   <time name="dav">   10.28   10.28</time>
   <time name="total">   10.79   10.80</time>
   <dipole>
    <v name="dipole">      0.00000000       0.00000000      -0.01148454 </v>
    <i name="Tr[quadrupol]">   -544.28930417 </i>
    <i name="Echarged">      0.00000000 </i>
    <i name="Edipol_quadrupol">      0.00000000 </i>
    <i name="Eion">      0.00000000 </i>
   </dipole>
   <energy>
    <i name="e_fr_energy">    -81.74251087 </i>
    <i name="e_wo_entrp">    -81.74898844 </i>
    <i name="e_0_energy">    -81.74413026 </i>
   </energy>
  </scstep>
  <scstep>
   <time name="dav">    9.80    9.80</time>
   <time name="total">   10.32   10.33</time>
   <dipole>
    <v name="dipole">      0.00000000       0.00000000      -0.01078907 </v>
    <i name="Tr[quadrupol]">   -544.33229623 </i>
    <i name="Echarged">      0.00000000 </i>
    <i name="Edipol_quadrupol">      0.00000000 </i>
    <i name="Eion">      0.00000000 </i>
   </dipole>
   <energy>
    <i name="e_fr_energy">    -81.74175699 </i>
    <i name="e_wo_entrp">    -81.74772914 </i>
    <i name="e_0_energy">    -81.74325003 </i>
   </energy>
  </scstep>
  <scstep>
   <time name="dav">    9.86    9.94</time>
   <time name="total">   10.38   10.46</time>
   <dipole>
    <v name="dipole">      0.00000000       0.00000000      -0.00792890 </v>
    <i name="Tr[quadrupol]">   -544.42758245 </i>
    <i name="Echarged">      0.00000000 </i>
    <i name="Edipol_quadrupol">      0.00000000 </i>
    <i name="Eion">      0.00000000 </i>
   </dipole>
   <energy>
    <i name="e_fr_energy">    -81.74098640 </i>
    <i name="e_wo_entrp">    -81.74663649 </i>
    <i name="e_0_energy">    -81.74239892 </i>
   </energy>
  </scstep>
  <scstep>
   <time name="dav">    9.53    9.54</time>
   <time name="total">   10.06   10.06</time>
   <dipole>
    <v name="dipole">      0.00000000       0.00000000      -0.00701260 </v>
    <i name="Tr[quadrupol]">   -544.49243337 </i>
    <i name="Echarged">      0.00000000 </i>
    <i name="Edipol_quadrupol">      0.00000000 </i>
    <i name="Eion">      0.00000000 </i>
   </dipole>
   <energy>
    <i name="e_fr_energy">    -81.74069966 </i>
    <i name="e_wo_entrp">    -81.74642199 </i>
    <i name="e_0_energy">    -81.74213024 </i>
   </energy>
  </scstep>
  <scstep>
   <time name="dav">    9.95    9.95</time>
   <time name="total">   10.47   10.47</time>
   <dipole>
    <v name="dipole">      0.00000000       0.00000000      -0.00753691 </v>
    <i name="Tr[quadrupol]">   -544.53553067 </i>
    <i name="Echarged">      0.00000000 </i>
    <i name="Edipol_quadrupol">      0.00000000 </i>
    <i name="Eion">      0.00000000 </i>
   </dipole>
   <energy>
    <i name="e_fr_energy">    -81.74061129 </i>
    <i name="e_wo_entrp">    -81.74642137 </i>
    <i name="e_0_energy">    -81.74206381 </i>
   </energy>
  </scstep>
  <scstep>
   <time name="dav">    9.01    9.06</time>
   <time name="total">    9.53    9.58</time>
   <dipole>
    <v name="dipole">      0.00000000       0.00000000      -0.00714624 </v>
    <i name="Tr[quadrupol]">   -544.58661279 </i>
    <i name="Echarged">      0.00000000 </i>
    <i name="Edipol_quadrupol">      0.00000000 </i>
    <i name="Eion">      0.00000000 </i>
   </dipole>
   <energy>
    <i name="e_fr_energy">    -81.74057702 </i>
    <i name="e_wo_entrp">    -81.74632142 </i>
    <i name="e_0_energy">    -81.74201312 </i>
   </energy>
  </scstep>
  <scstep>
   <time name="dav">    9.62    9.65</time>
   <time name="total">   10.15   10.18</time>
   <dipole>
    <v name="dipole">      0.00000000       0.00000000      -0.00481507 </v>
    <i name="Tr[quadrupol]">   -544.62643681 </i>
    <i name="Echarged">      0.00000000 </i>
    <i name="Edipol_quadrupol">      0.00000000 </i>
    <i name="Eion">      0.00000000 </i>
   </dipole>
   <energy>
    <i name="e_fr_energy">    -81.74074433 </i>
    <i name="e_wo_entrp">    -81.74630766 </i>
    <i name="e_0_energy">    -81.74213516 </i>
   </energy>
  </scstep>
  <scstep>
   <time name="dav">    8.63    8.64</time>
   <time name="total">    9.16    9.16</time>
   <dipole>
    <v name="dipole">      0.00000000       0.00000000      -0.00418893 </v>
    <i name="Tr[quadrupol]">   -544.64902847 </i>
    <i name="Echarged">      0.00000000 </i>
    <i name="Edipol_quadrupol">      0.00000000 </i>
    <i name="Eion">      0.00000000 </i>
   </dipole>
   <energy>
    <i name="e_fr_energy">    -81.74083803 </i>
    <i name="e_wo_entrp">    -81.74649224 </i>
    <i name="e_0_energy">    -81.74225158 </i>
   </energy>
  </scstep>
  <scstep>
   <time name="dav">    9.58    9.58</time>
   <time name="total">   10.10   10.11</time>
   <dipole>
    <v name="dipole">      0.00000000       0.00000000      -0.00236467 </v>
    <i name="Tr[quadrupol]">   -544.68615872 </i>
    <i name="Echarged">      0.00000000 </i>
    <i name="Edipol_quadrupol">      0.00000000 </i>
    <i name="Eion">      0.00000000 </i>
   </dipole>
   <energy>
    <i name="e_fr_energy">    -81.74107509 </i>
    <i name="e_wo_entrp">    -81.74682669 </i>
    <i name="e_0_energy">    -81.74251299 </i>
   </energy>
  </scstep>
  <scstep>
   <time name="dav">    9.02    9.02</time>
   <time name="total">    9.54    9.54</time>
   <dipole>
    <v name="dipole">      0.00000000       0.00000000      -0.00065603 </v>
    <i name="Tr[quadrupol]">   -544.70810043 </i>
    <i name="Echarged">      0.00000000 </i>
    <i name="Edipol_quadrupol">      0.00000000 </i>
    <i name="Eion">      0.00000000 </i>
   </dipole>
   <energy>
    <i name="e_fr_energy">    -81.74125266 </i>
    <i name="e_wo_entrp">    -81.74698434 </i>
    <i name="e_0_energy">    -81.74268558 </i>
   </energy>
  </scstep>
  <scstep>
   <time name="dav">    8.54    8.54</time>
   <time name="total">    9.06    9.07</time>
   <dipole>
    <v name="dipole">      0.00000000       0.00000000       0.00102240 </v>
    <i name="Tr[quadrupol]">   -544.72987028 </i>
    <i name="Echarged">      0.00000000 </i>
    <i name="Edipol_quadrupol">      0.00000000 </i>
    <i name="Eion">      0.00000000 </i>
   </dipole>
   <energy>
    <i name="e_fr_energy">    -81.74142790 </i>
    <i name="e_wo_entrp">    -81.74716725 </i>
    <i name="e_0_energy">    -81.74286274 </i>
   </energy>
  </scstep>
  <scstep>
   <time name="dav">   10.37   10.45</time>
   <time name="total">   10.89   10.97</time>
   <dipole>
    <v name="dipole">      0.00000000       0.00000000       0.00795599 </v>
    <i name="Tr[quadrupol]">   -544.77523768 </i>
    <i name="Echarged">      0.00000000 </i>
    <i name="Edipol_quadrupol">      0.00000000 </i>
    <i name="Eion">      0.00000000 </i>
   </dipole>
   <energy>
    <i name="e_fr_energy">    -81.74182453 </i>
    <i name="e_wo_entrp">    -81.74723186 </i>
    <i name="e_0_energy">    -81.74317636 </i>
   </energy>
  </scstep>
  <scstep>
   <time name="dav">    9.46    9.49</time>
   <time name="total">    9.98   10.01</time>
   <dipole>
    <v name="dipole">      0.00000000       0.00000000       0.00936666 </v>
    <i name="Tr[quadrupol]">   -544.79048988 </i>
    <i name="Echarged">      0.00000000 </i>
    <i name="Edipol_quadrupol">      0.00000000 </i>
    <i name="Eion">      0.00000000 </i>
   </dipole>
   <energy>
    <i name="e_fr_energy">    -81.74180008 </i>
    <i name="e_wo_entrp">    -81.74731271 </i>
    <i name="e_0_energy">    -81.74317824 </i>
   </energy>
  </scstep>
  <scstep>
   <time name="dav">    5.86    5.86</time>
   <time name="total">    6.38    6.38</time>
   <dipole>
    <v name="dipole">      0.00000000       0.00000000       0.00961405 </v>
    <i name="Tr[quadrupol]">   -544.79303809 </i>
    <i name="Echarged">      0.00000000 </i>
    <i name="Edipol_quadrupol">      0.00000000 </i>
    <i name="Eion">      0.00000000 </i>
   </dipole>
   <energy>
    <i name="e_fr_energy">    -81.74179327 </i>
    <i name="e_wo_entrp">    -81.74732391 </i>
    <i name="e_0_energy">    -81.74317593 </i>
   </energy>
  </scstep>
  <scstep>
   <time name="dav">    6.67    6.74</time>
   <time name="total">    7.19    7.27</time>
   <dipole>
    <v name="dipole">      0.00000000       0.00000000       0.00813635 </v>
    <i name="Tr[quadrupol]">   -544.79207849 </i>
    <i name="Echarged">      0.00000000 </i>
    <i name="Edipol_quadrupol">      0.00000000 </i>
    <i name="Eion">      0.00000000 </i>
   </dipole>
   <energy>
    <i name="e_fr_energy">    -81.74169206 </i>
    <i name="e_wo_entrp">    -81.74748483 </i>
    <i name="e_0_energy">    -81.74314025 </i>
   </energy>
  </scstep>
  <scstep>
   <time name="dav">    9.25    9.26</time>
   <time name="total">    9.77    9.78</time>
   <dipole>
    <v name="dipole">      0.00000000       0.00000000       0.00812019 </v>
    <i name="Tr[quadrupol]">   -544.79121308 </i>
    <i name="Echarged">      0.00000000 </i>
    <i name="Edipol_quadrupol">      0.00000000 </i>
    <i name="Eion">      0.00000000 </i>
   </dipole>
   <energy>
    <i name="e_fr_energy">    -81.74172503 </i>
    <i name="e_wo_entrp">    -81.74737779 </i>
    <i name="e_0_energy">    -81.74313822 </i>
   </energy>
  </scstep>
  <scstep>
   <time name="dav">   10.62   10.63</time>
   <time name="total">   11.14   11.15</time>
   <dipole>
    <v name="dipole">      0.00000000       0.00000000       0.00626498 </v>
    <i name="Tr[quadrupol]">   -544.78786782 </i>
    <i name="Echarged">      0.00000000 </i>
    <i name="Edipol_quadrupol">      0.00000000 </i>
    <i name="Eion">      0.00000000 </i>
   </dipole>
   <energy>
    <i name="e_fr_energy">    -81.74170692 </i>
    <i name="e_wo_entrp">    -81.74761337 </i>
    <i name="e_0_energy">    -81.74318354 </i>
   </energy>
  </scstep>
  <scstep>
   <time name="dav">    9.83    9.87</time>
   <time name="total">   10.35   10.40</time>
   <dipole>
    <v name="dipole">      0.00000000       0.00000000       0.00522296 </v>
    <i name="Tr[quadrupol]">   -544.78565638 </i>
    <i name="Echarged">      0.00000000 </i>
    <i name="Edipol_quadrupol">      0.00000000 </i>
    <i name="Eion">      0.00000000 </i>
   </dipole>
   <energy>
    <i name="e_fr_energy">    -81.74174687 </i>
    <i name="e_wo_entrp">    -81.74775745 </i>
    <i name="e_0_energy">    -81.74324951 </i>
   </energy>
  </scstep>
  <scstep>
   <time name="dav">    9.21    9.21</time>
   <time name="total">    9.74    9.77</time>
   <dipole>
    <v name="dipole">      0.00000000       0.00000000       0.00470825 </v>
    <i name="Tr[quadrupol]">   -544.78490536 </i>
    <i name="Echarged">      0.00000000 </i>
    <i name="Edipol_quadrupol">      0.00000000 </i>
    <i name="Eion">      0.00000000 </i>
   </dipole>
   <energy>
    <i name="e_fr_energy">    -81.74177065 </i>
    <i name="e_wo_entrp">    -81.74781661 </i>
    <i name="e_0_energy">    -81.74328214 </i>
   </energy>
  </scstep>
  <scstep>
   <time name="dav">    5.80    5.81</time>
   <time name="total">    6.33    6.33</time>
   <dipole>
    <v name="dipole">      0.00000000       0.00000000       0.00464379 </v>
    <i name="Tr[quadrupol]">   -544.78664230 </i>
    <i name="Echarged">      0.00000000 </i>
    <i name="Edipol_quadrupol">      0.00000000 </i>
    <i name="Eion">      0.00000000 </i>
   </dipole>
   <energy>
    <i name="e_fr_energy">    -81.74175138 </i>
    <i name="e_wo_entrp">    -81.74775113 </i>
    <i name="e_0_energy">    -81.74325132 </i>
   </energy>
  </scstep>
  <scstep>
   <time name="dav">    6.90    6.90</time>
   <time name="total">    7.43    7.43</time>
   <dipole>
    <v name="dipole">      0.00000000       0.00000000       0.00502168 </v>
    <i name="Tr[quadrupol]">   -544.78810326 </i>
    <i name="Echarged">      0.00000000 </i>
    <i name="Edipol_quadrupol">      0.00000000 </i>
    <i name="Eion">      0.00000000 </i>
   </dipole>
   <energy>
    <i name="e_fr_energy">    -81.74170917 </i>
    <i name="e_wo_entrp">    -81.74751782 </i>
    <i name="e_0_energy">    -81.74316133 </i>
   </energy>
  </scstep>
  <scstep>
   <time name="dav">    8.35    8.36</time>
   <time name="total">    8.88    8.88</time>
   <dipole>
    <v name="dipole">      0.00000000       0.00000000       0.00494718 </v>
    <i name="Tr[quadrupol]">   -544.78856384 </i>
    <i name="Echarged">      0.00000000 </i>
    <i name="Edipol_quadrupol">      0.00000000 </i>
    <i name="Eion">      0.00000000 </i>
   </dipole>
   <energy>
    <i name="e_fr_energy">    -81.74171193 </i>
    <i name="e_wo_entrp">    -81.74747258 </i>
    <i name="e_0_energy">    -81.74315209 </i>
   </energy>
  </scstep>
  <scstep>
   <time name="dav">    5.65    5.65</time>
   <time name="total">    6.18    6.18</time>
   <dipole>
    <v name="dipole">      0.00000000       0.00000000       0.00486067 </v>
    <i name="Tr[quadrupol]">   -544.78874139 </i>
    <i name="Echarged">      0.00000000 </i>
    <i name="Edipol_quadrupol">      0.00000000 </i>
    <i name="Eion">      0.00000000 </i>
   </dipole>
   <energy>
    <i name="e_fr_energy">    -81.74171037 </i>
    <i name="e_wo_entrp">    -81.74750230 </i>
    <i name="e_0_energy">    -81.74315836 </i>
   </energy>
  </scstep>
  <scstep>
   <time name="dav">    5.66    5.66</time>
   <time name="total">    6.18    6.18</time>
   <dipole>
    <v name="dipole">      0.00000000       0.00000000       0.00493508 </v>
    <i name="Tr[quadrupol]">   -544.78889845 </i>
    <i name="Echarged">      0.00000000 </i>
    <i name="Edipol_quadrupol">      0.00000000 </i>
    <i name="Eion">      0.00000000 </i>
   </dipole>
   <energy>
    <i name="e_fr_energy">    -81.74171246 </i>
    <i name="e_wo_entrp">    -81.74746606 </i>
    <i name="e_0_energy">    -81.74315086 </i>
   </energy>
  </scstep>
  <scstep>
   <time name="dav">    5.77    5.77</time>
   <time name="total">    6.29    6.29</time>
   <dipole>
    <v name="dipole">      0.00000000       0.00000000       0.00443916 </v>
    <i name="Tr[quadrupol]">   -544.78867519 </i>
    <i name="Echarged">      0.00000000 </i>
    <i name="Edipol_quadrupol">      0.00000000 </i>
    <i name="Eion">      0.00000000 </i>
   </dipole>
   <energy>
    <i name="e_fr_energy">    -81.74171269 </i>
    <i name="e_wo_entrp">    -81.74754967 </i>
    <i name="e_0_energy">    -81.74317193 </i>
   </energy>
  </scstep>
  <scstep>
   <time name="dav">    7.14    7.22</time>
   <time name="total">    7.66    7.74</time>
   <dipole>
    <v name="dipole">      0.00000000       0.00000000       0.00415737 </v>
    <i name="Tr[quadrupol]">   -544.78887671 </i>
    <i name="Echarged">      0.00000000 </i>
    <i name="Edipol_quadrupol">      0.00000000 </i>
    <i name="Eion">      0.00000000 </i>
   </dipole>
   <energy>
    <i name="e_fr_energy">    -81.74171632 </i>
    <i name="e_wo_entrp">    -81.74757573 </i>
    <i name="e_0_energy">    -81.74318117 </i>
   </energy>
  </scstep>
  <scstep>
   <time name="dav">    5.75    5.75</time>
   <time name="total">    6.26    6.27</time>
   <dipole>
    <v name="dipole">      0.00000000       0.00000000       0.00406698 </v>
    <i name="Tr[quadrupol]">   -544.78960394 </i>
    <i name="Echarged">      0.00000000 </i>
    <i name="Edipol_quadrupol">      0.00000000 </i>
    <i name="Eion">      0.00000000 </i>
   </dipole>
   <energy>
    <i name="e_fr_energy">    -81.74171895 </i>
    <i name="e_wo_entrp">    -81.74759568 </i>
    <i name="e_0_energy">    -81.74318813 </i>
   </energy>
  </scstep>
  <scstep>
   <time name="dav">    6.23    6.25</time>
   <time name="total">    7.25    7.26</time>
   <dipole>
    <v name="dipole">      0.00000000       0.00000000       0.00412292 </v>
    <i name="Tr[quadrupol]">   -544.79028608 </i>
    <i name="Echarged">      0.00000000 </i>
    <i name="Edipol_quadrupol">      0.00000000 </i>
    <i name="Eion">      0.00000000 </i>
   </dipole>
   <energy>
    <i name="e_fr_energy">    -81.74171577 </i>
    <i name="e_wo_entrp">    -81.74757013 </i>
    <i name="e_0_energy">    -81.74317936 </i>
   </energy>
  </scstep>
  <scstep>
   <time name="dav">    8.22    8.23</time>
   <time name="total">    8.28    8.28</time>
   <dipole>
    <v name="dipole">      0.00000000       0.00000000       0.00405491 </v>
    <i name="Tr[quadrupol]">   -544.79002889 </i>
    <i name="Echarged">      0.00000000 </i>
    <i name="Edipol_quadrupol">      0.00000000 </i>
    <i name="Eion">      0.00000000 </i>
   </dipole>
   <energy>
    <i name="alphaZ">    514.61376045 </i>
    <i name="ewald">  30401.95029082 </i>
    <i name="hartreedc"> -40760.82987460 </i>
    <i name="XCdc">     -7.12311143 </i>
    <i name="pawpsdc">   7929.69806453 </i>
    <i name="pawaedc">  -7517.69384755 </i>
    <i name="eentropy">      0.00584807 </i>
    <i name="bandstr">   -510.63373506 </i>
    <i name="atom">   9868.27088960 </i>
    <i name="e_fr_energy">    -81.74171516 </i>
    <i name="e_wo_entrp">    -81.74756323 </i>
    <i name="e_0_energy">    -81.74317718 </i>
   </energy>
  </scstep>
  <structure>
   <crystal>
    <varray name="basis" >
     <v>       4.88428255       0.00000000       0.00000000 </v>
     <v>       2.44214127       4.22991277       0.00000000 </v>
     <v>       0.00000000       0.00000000      22.10741862 </v>
    </varray>
    <i name="volume">    456.74123834 </i>
    <varray name="rec_basis" >
     <v>       0.20473836      -0.11820575       0.00000000 </v>
     <v>      -0.00000000       0.23641149       0.00000000 </v>
     <v>       0.00000000       0.00000000       0.04523368 </v>
    </varray>
   </crystal>
   <varray name="positions" >
    <v>       0.30286415       0.49410690       0.00209390 </v>
    <v>       0.63619748       0.82744023       0.00209390 </v>
    <v>       0.96953081       0.16077357       0.00209390 </v>
    <v>       0.63619748       0.49410690       0.10624323 </v>
    <v>       0.96953081       0.82744023       0.10624323 </v>
    <v>       0.30286415       0.16077357       0.10624323 </v>
    <v>       0.30286415       0.49410690       0.31185932 </v>
    <v>       0.63619748       0.82744023       0.31185932 </v>
    <v>       0.96953081       0.16077357       0.31185932 </v>
    <v>       0.96953081       0.49410690       0.20822628 </v>
    <v>       0.30286415       0.82744023       0.20822628 </v>
    <v>       0.63619748       0.16077357       0.20822628 </v>
    <v>       0.76871130       0.99259116       0.43532491 </v>
    <v>       0.63852722       0.81279312       0.40965579 </v>
    <v>       0.99225302       0.83012516       0.44138925 </v>
   </varray>
  </structure>
  <varray name="forces" >
   <v>      -0.00803032      -0.00158422      -0.10892740 </v>
   <v>      -0.00467283       0.00954636      -0.21394139 </v>
   <v>       0.00029795      -0.00080379      -0.13603096 </v>
   <v>       0.02976740       0.04075392       0.13236918 </v>
   <v>      -0.06754540       0.00756779       0.12351911 </v>
   <v>       0.01938534      -0.03755096       0.14252914 </v>
   <v>       0.02037575       0.00909104      -0.33420968 </v>
   <v>       0.04047182      -0.05683502       1.39864606 </v>
   <v>      -0.06324505      -0.04021004      -0.14254411 </v>
   <v>      -0.02169513       0.05678481       0.06384145 </v>
   <v>       0.07889801       0.02851817       0.06069273 </v>
   <v>      -0.04509564      -0.07502077      -0.00305357 </v>
   <v>      -0.28015451      -0.22919686      -0.17103511 </v>
   <v>       0.30307722       0.25895243      -0.77950142 </v>
   <v>      -0.00183461       0.02998713      -0.03235402 </v>
  </varray>
  <varray name="stress" >
   <v>     -44.82803015      -1.00525279       0.26445233 </v>
   <v>      -1.00525278     -43.34973660      -0.26247529 </v>
   <v>       0.26445233      -0.26247527      -6.13546510 </v>
  </varray>
  <energy>
   <i name="e_fr_energy">    -81.74171516 </i>
   <i name="e_wo_entrp">    -81.74317718 </i>
   <i name="e_0_energy">      0.00584807 </i>
  </energy>
  <time name="totalsc">  437.34  438.35</time>
 </calculation>
 <calculation>
  <scstep>
   <time name="dav">    7.35    7.42</time>
   <time name="total">    7.86    7.94</time>
   <dipole>
    <v name="dipole">      0.00000000       0.00000000       0.00403371 </v>
    <i name="Tr[quadrupol]">   -544.74646345 </i>
    <i name="Echarged">      0.00000000 </i>
    <i name="Edipol_quadrupol">      0.00000000 </i>
    <i name="Eion">      0.00000000 </i>
   </dipole>
   <energy>
    <i name="alphaZ">    514.61268585 </i>
    <i name="ewald">  30400.11229425 </i>
    <i name="hartreedc"> -40758.23414010 </i>
    <i name="XCdc">     -7.07754950 </i>
    <i name="pawpsdc">   7929.69485072 </i>
    <i name="pawaedc">  -7517.69068542 </i>
    <i name="eentropy">      0.00748458 </i>
    <i name="bandstr">   -511.47792677 </i>
    <i name="atom">   9868.27088960 </i>
    <i name="e_fr_energy">    -81.78209679 </i>
    <i name="e_wo_entrp">    -81.78958137 </i>
    <i name="e_0_energy">    -81.78396793 </i>
   </energy>
  </scstep>
  <scstep>
   <time name="dav">    9.70    9.71</time>
   <time name="total">   10.22   10.23</time>
   <dipole>
    <v name="dipole">      0.00000000       0.00000000      -0.02240612 </v>
    <i name="Tr[quadrupol]">   -544.76984482 </i>
    <i name="Echarged">      0.00000000 </i>
    <i name="Edipol_quadrupol">      0.00000000 </i>
    <i name="Eion">      0.00000000 </i>
   </dipole>
   <energy>
    <i name="e_fr_energy">    -81.83111282 </i>
    <i name="e_wo_entrp">    -81.84353246 </i>
    <i name="e_0_energy">    -81.83421773 </i>
   </energy>
  </scstep>
  <scstep>
   <time name="dav">   10.27   10.28</time>
   <time name="total">   10.79   10.80</time>
   <dipole>
    <v name="dipole">      0.00000000       0.00000000       0.00426681 </v>
    <i name="Tr[quadrupol]">   -544.81459744 </i>
    <i name="Echarged">      0.00000000 </i>
    <i name="Edipol_quadrupol">      0.00000000 </i>
    <i name="Eion">      0.00000000 </i>
   </dipole>
   <energy>
    <i name="e_fr_energy">    -81.79968594 </i>
    <i name="e_wo_entrp">    -81.80529845 </i>
    <i name="e_0_energy">    -81.80108906 </i>
   </energy>
  </scstep>
  <scstep>
   <time name="dav">   10.60   10.62</time>
   <time name="total">   11.12   11.14</time>
   <dipole>
    <v name="dipole">      0.00000000       0.00000000       0.00199918 </v>
    <i name="Tr[quadrupol]">   -544.75443934 </i>
    <i name="Echarged">      0.00000000 </i>
    <i name="Edipol_quadrupol">      0.00000000 </i>
    <i name="Eion">      0.00000000 </i>
   </dipole>
   <energy>
    <i name="e_fr_energy">    -81.79495204 </i>
    <i name="e_wo_entrp">    -81.80248265 </i>
    <i name="e_0_energy">    -81.79683469 </i>
   </energy>
  </scstep>
  <scstep>
   <time name="dav">   10.22   10.23</time>
   <time name="total">   10.74   10.75</time>
   <dipole>
    <v name="dipole">      0.00000000       0.00000000      -0.00277144 </v>
    <i name="Tr[quadrupol]">   -544.79430349 </i>
    <i name="Echarged">      0.00000000 </i>
    <i name="Edipol_quadrupol">      0.00000000 </i>
    <i name="Eion">      0.00000000 </i>
   </dipole>
   <energy>
    <i name="e_fr_energy">    -81.79363995 </i>
    <i name="e_wo_entrp">    -81.80187084 </i>
    <i name="e_0_energy">    -81.79569767 </i>
   </energy>
  </scstep>
  <scstep>
   <time name="dav">    9.93    9.94</time>
   <time name="total">   10.45   10.46</time>
   <dipole>
    <v name="dipole">      0.00000000       0.00000000      -0.00381110 </v>
    <i name="Tr[quadrupol]">   -544.78804402 </i>
    <i name="Echarged">      0.00000000 </i>
    <i name="Edipol_quadrupol">      0.00000000 </i>
    <i name="Eion">      0.00000000 </i>
   </dipole>
   <energy>
    <i name="e_fr_energy">    -81.79347520 </i>
    <i name="e_wo_entrp">    -81.80124363 </i>
    <i name="e_0_energy">    -81.79541730 </i>
   </energy>
  </scstep>
  <scstep>
   <time name="dav">   10.61   10.62</time>
   <time name="total">   11.12   11.14</time>
   <dipole>
    <v name="dipole">      0.00000000       0.00000000      -0.00169480 </v>
    <i name="Tr[quadrupol]">   -544.80414135 </i>
    <i name="Echarged">      0.00000000 </i>
    <i name="Edipol_quadrupol">      0.00000000 </i>
    <i name="Eion">      0.00000000 </i>
   </dipole>
   <energy>
    <i name="e_fr_energy">    -81.79324207 </i>
    <i name="e_wo_entrp">    -81.80098586 </i>
    <i name="e_0_energy">    -81.79517802 </i>
   </energy>
  </scstep>
  <scstep>
   <time name="dav">   10.15   10.15</time>
   <time name="total">   10.67   10.67</time>
   <dipole>
    <v name="dipole">      0.00000000       0.00000000      -0.00235347 </v>
    <i name="Tr[quadrupol]">   -544.79766183 </i>
    <i name="Echarged">      0.00000000 </i>
    <i name="Edipol_quadrupol">      0.00000000 </i>
    <i name="Eion">      0.00000000 </i>
   </dipole>
   <energy>
    <i name="e_fr_energy">    -81.79306993 </i>
    <i name="e_wo_entrp">    -81.80061779 </i>
    <i name="e_0_energy">    -81.79495689 </i>
   </energy>
  </scstep>
  <scstep>
   <time name="dav">   10.17   10.17</time>
   <time name="total">   10.69   10.69</time>
   <dipole>
    <v name="dipole">      0.00000000       0.00000000      -0.00263868 </v>
    <i name="Tr[quadrupol]">   -544.80034140 </i>
    <i name="Echarged">      0.00000000 </i>
    <i name="Edipol_quadrupol">      0.00000000 </i>
    <i name="Eion">      0.00000000 </i>
   </dipole>
   <energy>
    <i name="e_fr_energy">    -81.79304429 </i>
    <i name="e_wo_entrp">    -81.80073359 </i>
    <i name="e_0_energy">    -81.79496661 </i>
   </energy>
  </scstep>
  <scstep>
   <time name="dav">    9.69    9.70</time>
   <time name="total">   10.22   10.23</time>
   <dipole>
    <v name="dipole">      0.00000000       0.00000000      -0.00276481 </v>
    <i name="Tr[quadrupol]">   -544.79946866 </i>
    <i name="Echarged">      0.00000000 </i>
    <i name="Edipol_quadrupol">      0.00000000 </i>
    <i name="Eion">      0.00000000 </i>
   </dipole>
   <energy>
    <i name="e_fr_energy">    -81.79304130 </i>
    <i name="e_wo_entrp">    -81.80075924 </i>
    <i name="e_0_energy">    -81.79497078 </i>
   </energy>
  </scstep>
  <scstep>
   <time name="dav">    9.65    9.66</time>
   <time name="total">   10.17   10.18</time>
   <dipole>
    <v name="dipole">      0.00000000       0.00000000      -0.00289530 </v>
    <i name="Tr[quadrupol]">   -544.79958569 </i>
    <i name="Echarged">      0.00000000 </i>
    <i name="Edipol_quadrupol">      0.00000000 </i>
    <i name="Eion">      0.00000000 </i>
   </dipole>
   <energy>
    <i name="e_fr_energy">    -81.79304299 </i>
    <i name="e_wo_entrp">    -81.80081023 </i>
    <i name="e_0_energy">    -81.79498480 </i>
   </energy>
  </scstep>
  <scstep>
   <time name="dav">    6.24    6.24</time>
   <time name="total">    6.76    6.76</time>
   <dipole>
    <v name="dipole">      0.00000000       0.00000000      -0.00302361 </v>
    <i name="Tr[quadrupol]">   -544.80005219 </i>
    <i name="Echarged">      0.00000000 </i>
    <i name="Edipol_quadrupol">      0.00000000 </i>
    <i name="Eion">      0.00000000 </i>
   </dipole>
   <energy>
    <i name="e_fr_energy">    -81.79304480 </i>
    <i name="e_wo_entrp">    -81.80080380 </i>
    <i name="e_0_energy">    -81.79498455 </i>
   </energy>
  </scstep>
  <scstep>
   <time name="dav">    5.89    5.90</time>
   <time name="total">    6.41    6.42</time>
   <dipole>
    <v name="dipole">      0.00000000       0.00000000      -0.00307197 </v>
    <i name="Tr[quadrupol]">   -544.80050185 </i>
    <i name="Echarged">      0.00000000 </i>
    <i name="Edipol_quadrupol">      0.00000000 </i>
    <i name="Eion">      0.00000000 </i>
   </dipole>
   <energy>
    <i name="e_fr_energy">    -81.79304659 </i>
    <i name="e_wo_entrp">    -81.80079164 </i>
    <i name="e_0_energy">    -81.79498285 </i>
   </energy>
  </scstep>
  <scstep>
   <time name="dav">    5.78    5.78</time>
   <time name="total">    6.30    6.30</time>
   <dipole>
    <v name="dipole">      0.00000000       0.00000000      -0.00313494 </v>
    <i name="Tr[quadrupol]">   -544.80090219 </i>
    <i name="Echarged">      0.00000000 </i>
    <i name="Edipol_quadrupol">      0.00000000 </i>
    <i name="Eion">      0.00000000 </i>
   </dipole>
   <energy>
    <i name="e_fr_energy">    -81.79304828 </i>
    <i name="e_wo_entrp">    -81.80078813 </i>
    <i name="e_0_energy">    -81.79498324 </i>
   </energy>
  </scstep>
  <scstep>
   <time name="dav">    5.62    5.62</time>
   <time name="total">    6.14    6.14</time>
   <dipole>
    <v name="dipole">      0.00000000       0.00000000      -0.00319816 </v>
    <i name="Tr[quadrupol]">   -544.80118422 </i>
    <i name="Echarged">      0.00000000 </i>
    <i name="Edipol_quadrupol">      0.00000000 </i>
    <i name="Eion">      0.00000000 </i>
   </dipole>
   <energy>
    <i name="e_fr_energy">    -81.79304954 </i>
    <i name="e_wo_entrp">    -81.80078685 </i>
    <i name="e_0_energy">    -81.79498387 </i>
   </energy>
  </scstep>
  <scstep>
   <time name="dav">    5.74    5.74</time>
   <time name="total">    6.26    6.26</time>
   <dipole>
    <v name="dipole">      0.00000000       0.00000000      -0.00326392 </v>
    <i name="Tr[quadrupol]">   -544.80140165 </i>
    <i name="Echarged">      0.00000000 </i>
    <i name="Edipol_quadrupol">      0.00000000 </i>
    <i name="Eion">      0.00000000 </i>
   </dipole>
   <energy>
    <i name="e_fr_energy">    -81.79305066 </i>
    <i name="e_wo_entrp">    -81.80078760 </i>
    <i name="e_0_energy">    -81.79498489 </i>
   </energy>
  </scstep>
  <scstep>
   <time name="dav">    5.71    5.72</time>
   <time name="total">    5.75    5.75</time>
   <dipole>
    <v name="dipole">      0.00000000       0.00000000      -0.00331577 </v>
    <i name="Tr[quadrupol]">   -544.80157527 </i>
    <i name="Echarged">      0.00000000 </i>
    <i name="Edipol_quadrupol">      0.00000000 </i>
    <i name="Eion">      0.00000000 </i>
   </dipole>
   <energy>
    <i name="alphaZ">    514.27455923 </i>
    <i name="ewald">  30400.11229425 </i>
    <i name="hartreedc"> -40760.47360954 </i>
    <i name="XCdc">     -7.04438910 </i>
    <i name="pawpsdc">   7932.54367231 </i>
    <i name="pawaedc">  -7520.54531870 </i>
    <i name="eentropy">      0.00773636 </i>
    <i name="bandstr">   -508.93888576 </i>
    <i name="atom">   9868.27088960 </i>
    <i name="e_fr_energy">    -81.79305135 </i>
    <i name="e_wo_entrp">    -81.80078771 </i>
    <i name="e_0_energy">    -81.79498544 </i>
   </energy>
  </scstep>
  <structure>
   <crystal>
    <varray name="basis" >
     <v>       4.88428255       0.00000000       0.00000000 </v>
     <v>       2.44214127       4.22991277       0.00000000 </v>
     <v>       0.00000000       0.00000000      22.10741862 </v>
    </varray>
    <i name="volume">    456.74123834 </i>
    <varray name="rec_basis" >
     <v>       0.20473836      -0.11820575       0.00000000 </v>
     <v>      -0.00000000       0.23641149       0.00000000 </v>
     <v>       0.00000000       0.00000000       0.04523368 </v>
    </varray>
   </crystal>
   <varray name="positions" >
    <v>       0.30286415       0.49410690       0.00209390 </v>
    <v>       0.63619748       0.82744023       0.00209390 </v>
    <v>       0.96953081       0.16077357       0.00209390 </v>
    <v>       0.63619748       0.49410690       0.10624323 </v>
    <v>       0.96953081       0.82744023       0.10624323 </v>
    <v>       0.30286415       0.16077357       0.10624323 </v>
    <v>       0.30292391       0.49414837       0.31156760 </v>
    <v>       0.63648702       0.82718095       0.31308017 </v>
    <v>       0.96937266       0.16059012       0.31173490 </v>
    <v>       0.96931557       0.49436595       0.20828201 </v>
    <v>       0.30311081       0.82757033       0.20827926 </v>
    <v>       0.63619044       0.16043132       0.20822362 </v>
    <v>       0.76812725       0.99154555       0.43517562 </v>
    <v>       0.63913396       0.81397447       0.40897538 </v>
    <v>       0.99217737       0.83026196       0.44136101 </v>
   </varray>
  </structure>
  <varray name="forces" >
   <v>      -0.00798992      -0.00114043      -0.10876090 </v>
   <v>      -0.00535169       0.00872702      -0.21637942 </v>
   <v>      -0.00021345      -0.00098673      -0.13610459 </v>
   <v>       0.02985823       0.04330923       0.13391941 </v>
   <v>      -0.06872568       0.00696185       0.12368868 </v>
   <v>       0.01990250      -0.03855541       0.14359391 </v>
   <v>       0.02162132       0.00516875      -0.29757279 </v>
   <v>       0.05116719      -0.03518291       1.05853655 </v>
   <v>      -0.05370193      -0.03611065      -0.13711067 </v>
   <v>      -0.03930142       0.07293014       0.08679881 </v>
   <v>       0.10350213       0.02435326       0.08816586 </v>
   <v>      -0.04853931      -0.08915670       0.02208376 </v>
   <v>      -0.06054097      -0.07165495      -0.06505797 </v>
   <v>       0.08864828       0.08463579      -0.64564844 </v>
   <v>      -0.03033529       0.02670173      -0.05015221 </v>
  </varray>
  <varray name="stress" >
   <v>     -44.22541385      -0.36366983       0.48222112 </v>
   <v>      -0.36366982     -43.02590897      -0.10111908 </v>
   <v>       0.48222110      -0.10111908      -4.68917040 </v>
  </varray>
  <energy>
   <i name="e_fr_energy">    -81.79305135 </i>
   <i name="e_wo_entrp">    -81.79498544 </i>
   <i name="e_0_energy">      0.00773636 </i>
  </energy>
  <time name="totalsc">  156.55  156.74</time>
 </calculation>
 <calculation>
  <scstep>
   <time name="dav">    7.37    7.39</time>
   <time name="total">    7.88    7.90</time>
   <dipole>
    <v name="dipole">      0.00000000       0.00000000      -0.00344620 </v>
    <i name="Tr[quadrupol]">   -544.71282212 </i>
    <i name="Echarged">      0.00000000 </i>
    <i name="Edipol_quadrupol">      0.00000000 </i>
    <i name="Eion">      0.00000000 </i>
   </dipole>
   <energy>
    <i name="alphaZ">    514.28520251 </i>
    <i name="ewald">  30396.49159536 </i>
    <i name="hartreedc"> -40754.97889646 </i>
    <i name="XCdc">     -6.93063376 </i>
    <i name="pawpsdc">   7932.53930545 </i>
    <i name="pawaedc">  -7520.54096734 </i>
    <i name="eentropy">      0.00970500 </i>
    <i name="bandstr">   -510.92627284 </i>
    <i name="atom">   9868.27088960 </i>
    <i name="e_fr_energy">    -81.78007248 </i>
    <i name="e_wo_entrp">    -81.78977747 </i>
    <i name="e_0_energy">    -81.78249873 </i>
   </energy>
  </scstep>
  <scstep>
   <time name="dav">    9.85    9.86</time>
   <time name="total">   10.38   10.38</time>
   <dipole>
    <v name="dipole">      0.00000000       0.00000000      -0.07554852 </v>
    <i name="Tr[quadrupol]">   -544.73837745 </i>
    <i name="Echarged">      0.00000000 </i>
    <i name="Edipol_quadrupol">      0.00000000 </i>
    <i name="Eion">      0.00000000 </i>
   </dipole>
   <energy>
    <i name="e_fr_energy">    -82.14626742 </i>
    <i name="e_wo_entrp">    -82.15832359 </i>
    <i name="e_0_energy">    -82.14928146 </i>
   </energy>
  </scstep>
  <scstep>
   <time name="dav">   10.45   10.45</time>
   <time name="total">   10.96   10.97</time>
   <dipole>
    <v name="dipole">      0.00000000       0.00000000      -0.00298142 </v>
    <i name="Tr[quadrupol]">   -544.86966507 </i>
    <i name="Echarged">      0.00000000 </i>
    <i name="Edipol_quadrupol">      0.00000000 </i>
    <i name="Eion">      0.00000000 </i>
   </dipole>
   <energy>
    <i name="e_fr_energy">    -81.88284717 </i>
    <i name="e_wo_entrp">    -81.88887320 </i>
    <i name="e_0_energy">    -81.88435368 </i>
   </energy>
  </scstep>
  <scstep>
   <time name="dav">   10.69   10.70</time>
   <time name="total">   11.22   11.22</time>
   <dipole>
    <v name="dipole">      0.00000000       0.00000000      -0.00783243 </v>
    <i name="Tr[quadrupol]">   -544.72139359 </i>
    <i name="Echarged">      0.00000000 </i>
    <i name="Edipol_quadrupol">      0.00000000 </i>
    <i name="Eion">      0.00000000 </i>
   </dipole>
   <energy>
    <i name="e_fr_energy">    -81.85101809 </i>
    <i name="e_wo_entrp">    -81.86165362 </i>
    <i name="e_0_energy">    -81.85367697 </i>
   </energy>
  </scstep>
  <scstep>
   <time name="dav">   10.22   10.22</time>
   <time name="total">   10.74   10.74</time>
   <dipole>
    <v name="dipole">      0.00000000       0.00000000      -0.01991668 </v>
    <i name="Tr[quadrupol]">   -544.79640151 </i>
    <i name="Echarged">      0.00000000 </i>
    <i name="Edipol_quadrupol">      0.00000000 </i>
    <i name="Eion">      0.00000000 </i>
   </dipole>
   <energy>
    <i name="e_fr_energy">    -81.84444091 </i>
    <i name="e_wo_entrp">    -81.85610522 </i>
    <i name="e_0_energy">    -81.84735699 </i>
   </energy>
  </scstep>
  <scstep>
   <time name="dav">   10.01   10.02</time>
   <time name="total">   10.53   10.53</time>
   <dipole>
    <v name="dipole">      0.00000000       0.00000000      -0.02106885 </v>
    <i name="Tr[quadrupol]">   -544.79375307 </i>
    <i name="Echarged">      0.00000000 </i>
    <i name="Edipol_quadrupol">      0.00000000 </i>
    <i name="Eion">      0.00000000 </i>
   </dipole>
   <energy>
    <i name="e_fr_energy">    -81.84298021 </i>
    <i name="e_wo_entrp">    -81.85394713 </i>
    <i name="e_0_energy">    -81.84572194 </i>
   </energy>
  </scstep>
  <scstep>
   <time name="dav">   10.50   10.52</time>
   <time name="total">   11.02   11.03</time>
   <dipole>
    <v name="dipole">      0.00000000       0.00000000      -0.01660465 </v>
    <i name="Tr[quadrupol]">   -544.83729054 </i>
    <i name="Echarged">      0.00000000 </i>
    <i name="Edipol_quadrupol">      0.00000000 </i>
    <i name="Eion">      0.00000000 </i>
   </dipole>
   <energy>
    <i name="e_fr_energy">    -81.84272339 </i>
    <i name="e_wo_entrp">    -81.85366721 </i>
    <i name="e_0_energy">    -81.84545934 </i>
   </energy>
  </scstep>
  <scstep>
   <time name="dav">   10.47   10.48</time>
   <time name="total">   10.99   10.99</time>
   <dipole>
    <v name="dipole">      0.00000000       0.00000000      -0.01790457 </v>
    <i name="Tr[quadrupol]">   -544.81730243 </i>
    <i name="Echarged">      0.00000000 </i>
    <i name="Edipol_quadrupol">      0.00000000 </i>
    <i name="Eion">      0.00000000 </i>
   </dipole>
   <energy>
    <i name="e_fr_energy">    -81.84144875 </i>
    <i name="e_wo_entrp">    -81.85141416 </i>
    <i name="e_0_energy">    -81.84394010 </i>
   </energy>
  </scstep>
  <scstep>
   <time name="dav">   10.27   10.27</time>
   <time name="total">   10.78   10.79</time>
   <dipole>
    <v name="dipole">      0.00000000       0.00000000      -0.01905386 </v>
    <i name="Tr[quadrupol]">   -544.82431489 </i>
    <i name="Echarged">      0.00000000 </i>
    <i name="Edipol_quadrupol">      0.00000000 </i>
    <i name="Eion">      0.00000000 </i>
   </dipole>
   <energy>
    <i name="e_fr_energy">    -81.84117675 </i>
    <i name="e_wo_entrp">    -81.85181490 </i>
    <i name="e_0_energy">    -81.84383629 </i>
   </energy>
  </scstep>
  <scstep>
   <time name="dav">    9.73    9.73</time>
   <time name="total">   10.25   10.25</time>
   <dipole>
    <v name="dipole">      0.00000000       0.00000000      -0.01917366 </v>
    <i name="Tr[quadrupol]">   -544.82157359 </i>
    <i name="Echarged">      0.00000000 </i>
    <i name="Edipol_quadrupol">      0.00000000 </i>
    <i name="Eion">      0.00000000 </i>
   </dipole>
   <energy>
    <i name="e_fr_energy">    -81.84114228 </i>
    <i name="e_wo_entrp">    -81.85179530 </i>
    <i name="e_0_energy">    -81.84380553 </i>
   </energy>
  </scstep>
  <scstep>
   <time name="dav">    9.95    9.95</time>
   <time name="total">   10.53   10.54</time>
   <dipole>
    <v name="dipole">      0.00000000       0.00000000      -0.01936502 </v>
    <i name="Tr[quadrupol]">   -544.82081550 </i>
    <i name="Echarged">      0.00000000 </i>
    <i name="Edipol_quadrupol">      0.00000000 </i>
    <i name="Eion">      0.00000000 </i>
   </dipole>
   <energy>
    <i name="e_fr_energy">    -81.84114236 </i>
    <i name="e_wo_entrp">    -81.85195817 </i>
    <i name="e_0_energy">    -81.84384631 </i>
   </energy>
  </scstep>
  <scstep>
   <time name="dav">    9.30    9.31</time>
[...]
       <r>   -5.3537    1.0000 </r>
       <r>   -5.1142    1.0000 </r>
       <r>   -5.0023    1.0000 </r>
       <r>   -4.9635    1.0000 </r>
       <r>   -4.7185    1.0000 </r>
       <r>   -4.5819    1.0000 </r>
       <r>   -4.5219    1.0000 </r>
       <r>   -4.4091    1.0000 </r>
       <r>   -4.3956    1.0000 </r>
       <r>   -4.1232    1.0000 </r>
       <r>   -4.0722    1.0000 </r>
       <r>   -3.9440    1.0000 </r>
       <r>   -3.7897    1.0000 </r>
       <r>   -3.7296    1.0000 </r>
       <r>   -3.6201    1.0000 </r>
       <r>   -3.5159    1.0000 </r>
       <r>   -3.4105    1.0000 </r>
       <r>   -3.3911    1.0000 </r>
       <r>   -3.3517    1.0000 </r>
       <r>   -3.2487    1.0000 </r>
       <r>   -3.1982    1.0000 </r>
       <r>   -3.1056    1.0000 </r>
       <r>   -2.9804    1.0000 </r>
       <r>   -2.9107    1.0000 </r>
       <r>   -2.8274    1.0000 </r>
       <r>   -2.7239    1.0000 </r>
       <r>   -2.5714    1.0000 </r>
       <r>   -2.4877    1.0000 </r>
       <r>   -2.3524    1.0000 </r>
       <r>   -2.2082    1.0000 </r>
       <r>   -2.1796    1.0000 </r>
       <r>   -2.0584    1.0000 </r>
       <r>   -2.0315    1.0000 </r>
       <r>   -1.7977    1.0000 </r>
       <r>   -1.7178    1.0000 </r>
       <r>   -1.6791    1.0000 </r>
       <r>   -1.5688    1.0000 </r>
       <r>   -1.2937    1.0000 </r>
       <r>   -1.2382    1.0000 </r>
       <r>   -1.2011    1.0000 </r>
       <r>   -1.1443    1.0000 </r>
       <r>   -1.0845    1.0000 </r>
       <r>   -0.9659    0.9998 </r>
       <r>   -0.9343    0.9995 </r>
       <r>   -0.8210    0.9967 </r>
       <r>   -0.7871    0.9955 </r>
       <r>   -0.7362    0.9956 </r>
       <r>   -0.7019    0.9989 </r>
       <r>   -0.6514    1.0124 </r>
       <r>   -0.5745    1.0463 </r>
       <r>   -0.5136    1.0400 </r>
       <r>   -0.4693    0.9745 </r>
       <r>   -0.4323    0.8641 </r>
       <r>   -0.2344    0.0109 </r>
       <r>   -0.1786   -0.0495 </r>
       <r>   -0.0558   -0.0111 </r>
       <r>    0.0245    0.0044 </r>
       <r>    0.1842    0.0011 </r>
       <r>    0.5833    0.0000 </r>
       <r>    0.9168    0.0000 </r>
       <r>    1.0352    0.0000 </r>
       <r>    2.0020    0.0000 </r>
       <r>    2.8872    0.0000 </r>
       <r>    3.4283    0.0000 </r>
       <r>    3.8581    0.0000 </r>
       <r>    4.3678    0.0000 </r>
      </set>
     </set>
    </set>
   </array>
  </eigenvalues>
  <separator name="orbital magnetization" >
   <v name="MAGDIPOLOUT">      0.00000000      0.00000000      0.00000000</v>
  </separator>
  <dos>
   <i name="efermi">     -0.35524699 </i>
   <total>
    <array>
     <dimension dim="1">gridpoints</dimension>
     <dimension dim="2">spin</dimension>
     <field>energy</field>
     <field>total</field>
     <field>integrated</field>
     <set>
      <set comment="spin 1">
       <r>   -25.3065     0.0000     0.0000 </r>
       <r>   -25.1983     0.0000     0.0000 </r>
       <r>   -25.0902     0.0000     0.0000 </r>
       <r>   -24.9820     0.0000     0.0000 </r>
       <r>   -24.8739     0.0000     0.0000 </r>
       <r>   -24.7657     0.0000     0.0000 </r>
       <r>   -24.6575     0.0000     0.0000 </r>
       <r>   -24.5494     0.0000     0.0000 </r>
       <r>   -24.4412     0.0000     0.0000 </r>
       <r>   -24.3331     0.0000     0.0000 </r>
       <r>   -24.2249     0.0000     0.0000 </r>
       <r>   -24.1168     0.0000     0.0000 </r>
       <r>   -24.0086     0.0003     0.0000 </r>
       <r>   -23.9005     0.0052     0.0006 </r>
       <r>   -23.7923     0.0376     0.0047 </r>
       <r>   -23.6841     0.0415     0.0091 </r>
       <r>   -23.5760    -0.4686    -0.0415 </r>
       <r>   -23.4678    -0.4638    -0.0917 </r>
       <r>   -23.3597     4.6448     0.4107 </r>
       <r>   -23.2515     9.9779     1.4898 </r>
       <r>   -23.1434     5.4291     2.0770 </r>
       <r>   -23.0352    -0.2320     2.0519 </r>
       <r>   -22.9270    -0.5537     1.9920 </r>
       <r>   -22.8189     0.0234     1.9946 </r>
       <r>   -22.7107     0.0432     1.9992 </r>
       <r>   -22.6026     0.0066     2.0000 </r>
       <r>   -22.4944     0.0004     2.0000 </r>
       <r>   -22.3863     0.0000     2.0000 </r>
       <r>   -22.2781     0.0000     2.0000 </r>
       <r>   -22.1699     0.0000     2.0000 </r>
       <r>   -22.0618     0.0000     2.0000 </r>
       <r>   -21.9536     0.0000     2.0000 </r>
       <r>   -21.8455     0.0000     2.0000 </r>
       <r>   -21.7373     0.0000     2.0000 </r>
       <r>   -21.6292     0.0000     2.0000 </r>
       <r>   -21.5210     0.0000     2.0000 </r>
       <r>   -21.4129     0.0000     2.0000 </r>
       <r>   -21.3047     0.0000     2.0000 </r>
       <r>   -21.1965     0.0000     2.0000 </r>
       <r>   -21.0884     0.0000     2.0000 </r>
       <r>   -20.9802     0.0000     2.0000 </r>
       <r>   -20.8721     0.0000     2.0000 </r>
       <r>   -20.7639     0.0000     2.0000 </r>
       <r>   -20.6558     0.0000     2.0000 </r>
       <r>   -20.5476     0.0000     2.0000 </r>
       <r>   -20.4394     0.0000     2.0000 </r>
       <r>   -20.3313     0.0000     2.0000 </r>
       <r>   -20.2231     0.0000     2.0000 </r>
       <r>   -20.1150     0.0000     2.0000 </r>
       <r>   -20.0068     0.0000     2.0000 </r>
       <r>   -19.8987     0.0000     2.0000 </r>
       <r>   -19.7905     0.0000     2.0000 </r>
       <r>   -19.6823     0.0000     2.0000 </r>
       <r>   -19.5742     0.0000     2.0000 </r>
       <r>   -19.4660     0.0000     2.0000 </r>
       <r>   -19.3579     0.0000     2.0000 </r>
       <r>   -19.2497     0.0000     2.0000 </r>
       <r>   -19.1416     0.0000     2.0000 </r>
       <r>   -19.0334     0.0000     2.0000 </r>
       <r>   -18.9253     0.0000     2.0000 </r>
       <r>   -18.8171     0.0000     2.0000 </r>
       <r>   -18.7089     0.0000     2.0000 </r>
       <r>   -18.6008     0.0000     2.0000 </r>
       <r>   -18.4926     0.0000     2.0000 </r>
       <r>   -18.3845     0.0000     2.0000 </r>
       <r>   -18.2763     0.0000     2.0000 </r>
       <r>   -18.1682     0.0000     2.0000 </r>
       <r>   -18.0600     0.0000     2.0000 </r>
       <r>   -17.9518     0.0000     2.0000 </r>
       <r>   -17.8437     0.0000     2.0000 </r>
       <r>   -17.7355     0.0000     2.0000 </r>
       <r>   -17.6274     0.0000     2.0000 </r>
       <r>   -17.5192     0.0004     2.0000 </r>
       <r>   -17.4111     0.0068     2.0008 </r>
       <r>   -17.3029     0.0427     2.0054 </r>
       <r>   -17.1947     0.0198     2.0075 </r>
       <r>   -17.0866    -0.5434     1.9488 </r>
       <r>   -16.9784    -0.2002     1.9271 </r>
       <r>   -16.8703     5.3537     2.5061 </r>
       <r>   -16.7621     9.8758     3.5743 </r>
       <r>   -16.6540     4.7268     4.0855 </r>
       <r>   -16.5458    -0.3930     4.0430 </r>
       <r>   -16.4377    -0.4769     3.9914 </r>
       <r>   -16.3295     0.0352     3.9952 </r>
       <r>   -16.2213     0.0382     3.9994 </r>
       <r>   -16.1132     0.0055     4.0000 </r>
       <r>   -16.0050     0.0003     4.0000 </r>
       <r>   -15.8969     0.0000     4.0000 </r>
       <r>   -15.7887     0.0000     4.0000 </r>
       <r>   -15.6806     0.0000     4.0000 </r>
       <r>   -15.5724     0.0000     4.0000 </r>
       <r>   -15.4642     0.0000     4.0000 </r>
       <r>   -15.3561     0.0000     4.0000 </r>
       <r>   -15.2479     0.0000     4.0000 </r>
       <r>   -15.1398     0.0000     4.0000 </r>
       <r>   -15.0316     0.0000     4.0000 </r>
       <r>   -14.9235     0.0000     4.0000 </r>
       <r>   -14.8153     0.0000     4.0000 </r>
       <r>   -14.7071     0.0000     4.0000 </r>
       <r>   -14.5990     0.0000     4.0000 </r>
       <r>   -14.4908     0.0000     4.0000 </r>
       <r>   -14.3827     0.0000     4.0000 </r>
       <r>   -14.2745     0.0000     4.0000 </r>
       <r>   -14.1664     0.0000     4.0000 </r>
       <r>   -14.0582     0.0000     4.0000 </r>
       <r>   -13.9501     0.0000     4.0000 </r>
       <r>   -13.8419     0.0000     4.0000 </r>
       <r>   -13.7337     0.0000     4.0000 </r>
       <r>   -13.6256     0.0000     4.0000 </r>
       <r>   -13.5174     0.0000     4.0000 </r>
       <r>   -13.4093     0.0000     4.0000 </r>
       <r>   -13.3011     0.0000     4.0000 </r>
       <r>   -13.1930     0.0000     4.0000 </r>
       <r>   -13.0848     0.0000     4.0000 </r>
       <r>   -12.9766     0.0000     4.0000 </r>
       <r>   -12.8685     0.0000     4.0000 </r>
       <r>   -12.7603     0.0000     4.0000 </r>
       <r>   -12.6522     0.0000     4.0000 </r>
       <r>   -12.5440     0.0000     4.0000 </r>
       <r>   -12.4359     0.0000     4.0000 </r>
       <r>   -12.3277     0.0000     4.0000 </r>
       <r>   -12.2195     0.0000     4.0000 </r>
       <r>   -12.1114     0.0000     4.0000 </r>
       <r>   -12.0032     0.0000     4.0000 </r>
       <r>   -11.8951     0.0000     4.0000 </r>
       <r>   -11.7869     0.0000     4.0000 </r>
       <r>   -11.6788     0.0000     4.0000 </r>
       <r>   -11.5706     0.0000     4.0000 </r>
       <r>   -11.4625     0.0000     4.0000 </r>
       <r>   -11.3543     0.0000     4.0000 </r>
       <r>   -11.2461     0.0000     4.0000 </r>
       <r>   -11.1380     0.0000     4.0000 </r>
       <r>   -11.0298     0.0000     4.0000 </r>
       <r>   -10.9217     0.0000     4.0000 </r>
       <r>   -10.8135     0.0000     4.0000 </r>
       <r>   -10.7054     0.0000     4.0000 </r>
       <r>   -10.5972     0.0000     4.0000 </r>
       <r>   -10.4890     0.0000     4.0000 </r>
       <r>   -10.3809     0.0000     4.0000 </r>
       <r>   -10.2727     0.0000     4.0000 </r>
       <r>   -10.1646     0.0000     4.0000 </r>
       <r>   -10.0564     0.0000     4.0000 </r>
       <r>    -9.9483     0.0000     4.0000 </r>
       <r>    -9.8401     0.0000     4.0000 </r>
       <r>    -9.7319     0.0000     4.0000 </r>
       <r>    -9.6238     0.0000     4.0000 </r>
       <r>    -9.5156     0.0000     4.0000 </r>
       <r>    -9.4075     0.0002     4.0000 </r>
       <r>    -9.2993     0.0023     4.0003 </r>
       <r>    -9.1912     0.0112     4.0015 </r>
       <r>    -9.0830     0.0256     4.0042 </r>
       <r>    -8.9749    -0.0420     3.9997 </r>
       <r>    -8.8667    -0.3477     3.9621 </r>
       <r>    -8.7585     0.6013     4.0271 </r>
       <r>    -8.6504     5.7926     4.6536 </r>
       <r>    -8.5422     9.8104     5.7147 </r>
       <r>    -8.4341     5.5710     6.3172 </r>
       <r>    -8.3259     0.6683     6.3895 </r>
       <r>    -8.2178     0.0959     6.3999 </r>
       <r>    -8.1096     0.5189     6.4560 </r>
       <r>    -8.0014     0.9782     6.5618 </r>
       <r>    -7.8933     1.0334     6.6736 </r>
       <r>    -7.7851     0.6827     6.7474 </r>
       <r>    -7.6770     0.8047     6.8344 </r>
       <r>    -7.5688     1.1837     6.9625 </r>
       <r>    -7.4607     1.5449     7.1296 </r>
       <r>    -7.3525     2.0122     7.3472 </r>
       <r>    -7.2443     1.9417     7.5572 </r>
       <r>    -7.1362     1.6917     7.7402 </r>
       <r>    -7.0280     1.9234     7.9482 </r>
       <r>    -6.9199     3.4622     8.3226 </r>
       <r>    -6.8117     6.8390     9.0623 </r>
       <r>    -6.7036     7.4945     9.8729 </r>
       <r>    -6.5954     5.2644    10.4423 </r>
       <r>    -6.4873     6.0851    11.1004 </r>
       <r>    -6.3791     8.0766    11.9740 </r>
       <r>    -6.2709     7.5955    12.7955 </r>
       <r>    -6.1628     7.9061    13.6506 </r>
       <r>    -6.0546    11.3648    14.8797 </r>
       <r>    -5.9465    14.1147    16.4063 </r>
       <r>    -5.8383    13.3140    17.8463 </r>
       <r>    -5.7302    14.1819    19.3802 </r>
       <r>    -5.6220    18.7548    21.4086 </r>
       <r>    -5.5138    20.3111    23.6054 </r>
       <r>    -5.4057    18.0680    25.5596 </r>
       <r>    -5.2975    15.6682    27.2542 </r>
       <r>    -5.1894    14.3779    28.8093 </r>
       <r>    -5.0812    15.5621    30.4924 </r>
       <r>    -4.9731    16.0394    32.2272 </r>
       <r>    -4.8649    13.8799    33.7284 </r>
       <r>    -4.7567    14.1482    35.2586 </r>
       <r>    -4.6486    18.1870    37.2256 </r>
       <r>    -4.5404    19.6871    39.3549 </r>
       <r>    -4.4323    17.8264    41.2830 </r>
       <r>    -4.3241    16.7669    43.0964 </r>
       <r>    -4.2160    14.8950    44.7074 </r>
       <r>    -4.1078    13.9314    46.2142 </r>
       <r>    -3.9997    16.7179    48.0223 </r>
       <r>    -3.8915    19.8495    50.1692 </r>
       <r>    -3.7833    20.0646    52.3393 </r>
       <r>    -3.6752    19.8971    54.4913 </r>
       <r>    -3.5670    23.3559    57.0174 </r>
       <r>    -3.4589    27.7883    60.0229 </r>
       <r>    -3.3507    28.8544    63.1437 </r>
       <r>    -3.2426    27.6974    66.1393 </r>
       <r>    -3.1344    27.2214    69.0835 </r>
       <r>    -3.0262    28.0062    72.1125 </r>
       <r>    -2.9181    31.0666    75.4726 </r>
       <r>    -2.8099    31.4593    78.8751 </r>
       <r>    -2.7018    24.1300    81.4849 </r>
       <r>    -2.5936    16.7860    83.3005 </r>
       <r>    -2.4855    16.3785    85.0719 </r>
       <r>    -2.3773    18.1970    87.0400 </r>
       <r>    -2.2691    20.0111    89.2044 </r>
       <r>    -2.1610    22.2243    91.6081 </r>
       <r>    -2.0528    23.5903    94.1595 </r>
       <r>    -1.9447    22.8980    96.6361 </r>
       <r>    -1.8365    20.7541    98.8808 </r>
       <r>    -1.7284    20.3617   101.0830 </r>
       <r>    -1.6202    20.8513   103.3382 </r>
       <r>    -1.5121    20.2278   105.5260 </r>
       <r>    -1.4039    21.3795   107.8383 </r>
       <r>    -1.2957    24.5083   110.4890 </r>
       <r>    -1.1876    24.8518   113.1769 </r>
       <r>    -1.0794    21.1898   115.4687 </r>
       <r>    -0.9713    18.7112   117.4925 </r>
       <r>    -0.8631    20.5282   119.7127 </r>
       <r>    -0.7550    21.7014   122.0599 </r>
       <r>    -0.6468    22.9070   124.5374 </r>
       <r>    -0.5386    28.3201   127.6004 </r>
       <r>    -0.4305    30.8857   130.9409 </r>
       <r>    -0.3223    26.5095   133.8081 </r>
       <r>    -0.2142    22.1769   136.2067 </r>
       <r>    -0.1060    18.3794   138.1945 </r>
       <r>     0.0021    11.5005   139.4384 </r>
       <r>     0.1103     5.8267   140.0686 </r>
       <r>     0.2184     3.7526   140.4744 </r>
       <r>     0.3266     4.8110   140.9948 </r>
       <r>     0.4348     6.7466   141.7245 </r>
       <r>     0.5429     6.4306   142.4200 </r>
       <r>     0.6511     4.4881   142.9054 </r>
       <r>     0.7592     2.9714   143.2268 </r>
       <r>     0.8674     2.8344   143.5333 </r>
       <r>     0.9755     3.4959   143.9114 </r>
       <r>     1.0837     4.1116   144.3561 </r>
       <r>     1.1919     3.7665   144.7635 </r>
       <r>     1.3000     3.7286   145.1668 </r>
       <r>     1.4082     3.7358   145.5708 </r>
       <r>     1.5163     2.7962   145.8733 </r>
       <r>     1.6245     3.0875   146.2072 </r>
       <r>     1.7326     4.2112   146.6627 </r>
       <r>     1.8408     4.4417   147.1431 </r>
       <r>     1.9490     4.4539   147.6248 </r>
       <r>     2.0571     3.7508   148.0305 </r>
       <r>     2.1653     2.7328   148.3260 </r>
       <r>     2.2734     3.2813   148.6809 </r>
       <r>     2.3816     4.2414   149.1397 </r>
       <r>     2.4897     4.1151   149.5847 </r>
       <r>     2.5979     3.8655   150.0028 </r>
       <r>     2.7060     4.1718   150.4540 </r>
       <r>     2.8142     5.1092   151.0066 </r>
       <r>     2.9224     4.8824   151.5347 </r>
       <r>     3.0305     3.1265   151.8728 </r>
       <r>     3.1387     2.2688   152.1182 </r>
       <r>     3.2468     2.1363   152.3493 </r>
       <r>     3.3550     2.8190   152.6542 </r>
       <r>     3.4631     4.8935   153.1834 </r>
       <r>     3.5713     6.0604   153.8389 </r>
       <r>     3.6795     5.8749   154.4743 </r>
       <r>     3.7876     5.7650   155.0978 </r>
       <r>     3.8958     5.3662   155.6782 </r>
       <r>     4.0039     5.6771   156.2922 </r>
       <r>     4.1121     6.1682   156.9594 </r>
       <r>     4.2202     3.9486   157.3864 </r>
       <r>     4.3284     2.2035   157.6248 </r>
       <r>     4.4366     4.0012   158.0575 </r>
       <r>     4.5447     4.7298   158.5691 </r>
       <r>     4.6529     3.0975   158.9041 </r>
       <r>     4.7610     2.5476   159.1796 </r>
       <r>     4.8692     2.5708   159.4577 </r>
       <r>     4.9773     2.2941   159.7058 </r>
       <r>     5.0855     1.7986   159.9003 </r>
       <r>     5.1936     0.8690   159.9943 </r>
       <r>     5.3018     0.1187   160.0072 </r>
       <r>     5.4100    -0.0638   160.0002 </r>
       <r>     5.5181    -0.0118   159.9990 </r>
       <r>     5.6263     0.0069   159.9997 </r>
       <r>     5.7344     0.0023   160.0000 </r>
       <r>     5.8426     0.0003   160.0000 </r>
       <r>     5.9507     0.0000   160.0000 </r>
       <r>     6.0589     0.0000   160.0000 </r>
       <r>     6.1671     0.0000   160.0000 </r>
       <r>     6.2752     0.0000   160.0000 </r>
       <r>     6.3834     0.0000   160.0000 </r>
       <r>     6.4915     0.0000   160.0000 </r>
       <r>     6.5997     0.0000   160.0000 </r>
       <r>     6.7078     0.0000   160.0000 </r>
       <r>     6.8160     0.0000   160.0000 </r>
       <r>     6.9242     0.0000   160.0000 </r>
       <r>     7.0323     0.0000   160.0000 </r>
       <r>     7.1405     0.0000   160.0000 </r>
      </set>
     </set>
    </array>
   </total>
  </dos>
 </calculation>
 <structure name="finalpos" >
  <crystal>
   <varray name="basis" >
    <v>       4.88428255       0.00000000       0.00000000 </v>
    <v>       2.44214127       4.22991277       0.00000000 </v>
    <v>       0.00000000       0.00000000      22.10741862 </v>
   </varray>
   <i name="volume">    456.74123834 </i>
   <varray name="rec_basis" >
    <v>       0.20473836      -0.11820575       0.00000000 </v>
    <v>      -0.00000000       0.23641149       0.00000000 </v>
    <v>       0.00000000       0.00000000       0.04523368 </v>
   </varray>
  </crystal>
  <varray name="positions" >
   <v>       0.30286415       0.49410690       0.00209390 </v>
   <v>       0.63619748       0.82744023       0.00209390 </v>
   <v>       0.96953081       0.16077357       0.00209390 </v>
   <v>       0.63619748       0.49410690       0.10624323 </v>
   <v>       0.96953081       0.82744023       0.10624323 </v>
   <v>       0.30286415       0.16077357       0.10624323 </v>
   <v>       0.30918977       0.49247009       0.30895146 </v>
   <v>       0.64318111       0.82520726       0.31609770 </v>
   <v>       0.97235002       0.15766713       0.31128897 </v>
   <v>       0.96807702       0.49652647       0.20896774 </v>
   <v>       0.30904646       0.82930219       0.20889154 </v>
   <v>       0.64015193       0.15655317       0.20770141 </v>
   <v>       0.80555662       0.00887449       0.42863559 </v>
   <v>       0.65349857       0.83982125       0.40742521 </v>
   <v>       0.02531310       0.83725044       0.43474078 </v>
  </varray>
  <varray name="selective"  type="logical" >
   <v type="logical" >  F  F  F </v>
   <v type="logical" >  F  F  F </v>
   <v type="logical" >  F  F  F </v>
   <v type="logical" >  F  F  F </v>
   <v type="logical" >  F  F  F </v>
   <v type="logical" >  F  F  F </v>
   <v type="logical" >  T  T  T </v>
   <v type="logical" >  T  T  T </v>
   <v type="logical" >  T  T  T </v>
   <v type="logical" >  T  T  T </v>
   <v type="logical" >  T  T  T </v>
   <v type="logical" >  T  T  T </v>
   <v type="logical" >  T  T  T </v>
   <v type="logical" >  T  T  T </v>
   <v type="logical" >  T  T  T </v>
  </varray>
  <nose>
   <v>      -3.00000000       0.00000000       0.00010000       0.00010000 </v>
  </nose>
 </structure>
</modeling>
