<?xml version="1.0" encoding="ISO-8859-1"?>
<modeling>
 <generator>
  <i name="program" type="string">vasp </i>
  <i name="version" type="string">5.4.4.18Apr17-6-g9f103f2a35  </i>
  <i name="subversion" type="string">(build Apr 23 2019 15:17:44) complex            parallel </i>
  <i name="platform" type="string">MareNostrum4 </i>
  <i name="date" type="string">2019 05 10 </i>
  <i name="time" type="string">04:00:12 </i>
 </generator>
 <incar>
  <i type="int" name="ISTART">     0</i>
  <i type="string" name="PREC">normal</i>
  <i type="string" name="ALGO"> NORMAL</i>
  <i type="int" name="ICHARG">     2</i>
  <i type="int" name="INIWAV">     1</i>
  <i type="int" name="NELMIN">     8</i>
  <i type="int" name="IBRION">     2</i>
  <i name="EDIFF">      0.00000100</i>
  <i name="EDIFFG">     -0.01000000</i>
  <i type="int" name="NSW">  1500</i>
  <i name="ENCUT">    450.00000000</i>
  <i name="POTIM">      0.20000000</i>
  <i type="int" name="ISMEAR">     2</i>
  <i name="SIGMA">      0.20000000</i>
  <i type="logical" name="LWAVE"> F  </i>
  <i type="logical" name="LCHARG"> T  </i>
  <v type="int" name="KPOINT_BSE">    -1     0     0     0</v>
  <i type="string" name="GGA"> 91</i>
  <i type="logical" name="LDIPOL"> T  </i>
  <i type="int" name="IDIPOL">     3</i>
 </incar>
 <structure name="primitive_cell" >
  <crystal>
   <varray name="basis" >
    <v>       4.88428255       0.00000000       0.00000000 </v>
    <v>       2.44214127       4.22991277       0.00000000 </v>
    <v>       0.00000000       0.00000000      22.10741862 </v>
   </varray>
   <i name="volume">    456.74123834 </i>
   <varray name="rec_basis" >
    <v>       0.20473836      -0.11820575       0.00000000 </v>
    <v>      -0.00000000       0.23641149       0.00000000 </v>
    <v>       0.00000000       0.00000000       0.04523368 </v>
   </varray>
  </crystal>
  <varray name="positions" >
   <v>       0.30286415       0.49410690       0.00209390 </v>
   <v>      -0.36380252       0.49410690       0.10624323 </v>
   <v>      -0.03046919      -0.17255977       0.10624323 </v>
   <v>      -0.36380252      -0.17255977       0.00209390 </v>
   <v>      -0.03046919       0.16077357       0.00209390 </v>
   <v>       0.30286415       0.16077357       0.10624323 </v>
   <v>      -0.03046919       0.49410690       0.20429559 </v>
   <v>       0.30286415      -0.17255977       0.20429559 </v>
   <v>      -0.36380252       0.16077357       0.20429559 </v>
   <v>       0.30286415       0.49410690       0.30505139 </v>
   <v>      -0.36380252      -0.17255977       0.30505139 </v>
   <v>      -0.03046919       0.16077357       0.30505139 </v>
   <v>      -0.36147278      -0.18720688       0.40965579 </v>
   <v>      -0.00774698      -0.16987484       0.44138925 </v>
   <v>      -0.23128870      -0.00740884       0.43532491 </v>
  </varray>
 </structure>
 <varray name="primitive_index" >
  <v type="int" >        1 </v>
  <v type="int" >        4 </v>
  <v type="int" >        5 </v>
  <v type="int" >        2 </v>
  <v type="int" >        3 </v>
  <v type="int" >        6 </v>
  <v type="int" >       10 </v>
  <v type="int" >       11 </v>
  <v type="int" >       12 </v>
  <v type="int" >        7 </v>
  <v type="int" >        8 </v>
  <v type="int" >        9 </v>
  <v type="int" >       14 </v>
  <v type="int" >       15 </v>
  <v type="int" >       13 </v>
 </varray>
 <kpoints>
  <generation param="Monkhorst-Pack">
   <v type="int" name="divisions">       8        8        1 </v>
   <v name="usershift">      0.00000000       0.00000000       0.00000000 </v>
   <v name="genvec1">      0.12500000      -0.00000000       0.00000000 </v>
   <v name="genvec2">      0.00000000       0.12500000       0.00000000 </v>
   <v name="genvec3">      0.00000000       0.00000000       1.00000000 </v>
   <v name="shift">      0.50000000       0.50000000       0.00000000 </v>
  </generation>
  <varray name="kpointlist" >
   <v>       0.06250000       0.06250000       0.00000000 </v>
   <v>       0.00000000       0.06250000       0.00000000 </v>
   <v>      -0.06250000       0.00000000       0.00000000 </v>
   <v>       0.18750000       0.06250000       0.00000000 </v>
   <v>       0.12500000       0.18750000       0.00000000 </v>
   <v>      -0.06250000       0.12500000       0.00000000 </v>
   <v>       0.12500000      -0.06250000       0.00000000 </v>
   <v>      -0.06250000      -0.18750000       0.00000000 </v>
   <v>      -0.18750000      -0.12500000       0.00000000 </v>
   <v>       0.31250000       0.06250000       0.00000000 </v>
   <v>       0.25000000       0.31250000       0.00000000 </v>
   <v>      -0.06250000       0.25000000       0.00000000 </v>
   <v>       0.25000000      -0.06250000       0.00000000 </v>
   <v>      -0.06250000      -0.31250000       0.00000000 </v>
   <v>      -0.31250000      -0.25000000       0.00000000 </v>
   <v>       0.43750000       0.06250000       0.00000000 </v>
   <v>       0.37500000       0.43750000       0.00000000 </v>
   <v>      -0.06250000       0.37500000       0.00000000 </v>
   <v>       0.37500000      -0.06250000       0.00000000 </v>
   <v>      -0.06250000      -0.43750000       0.00000000 </v>
   <v>      -0.43750000      -0.37500000       0.00000000 </v>
   <v>      -0.43750000       0.06250000       0.00000000 </v>
   <v>       0.50000000      -0.43750000       0.00000000 </v>
   <v>      -0.06250000       0.50000000       0.00000000 </v>
   <v>       0.50000000      -0.06250000       0.00000000 </v>
   <v>      -0.06250000       0.43750000       0.00000000 </v>
   <v>       0.43750000       0.50000000       0.00000000 </v>
   <v>      -0.31250000       0.06250000       0.00000000 </v>
   <v>      -0.37500000      -0.31250000       0.00000000 </v>
   <v>      -0.06250000      -0.37500000       0.00000000 </v>
   <v>      -0.37500000      -0.06250000       0.00000000 </v>
   <v>      -0.06250000       0.31250000       0.00000000 </v>
   <v>       0.31250000       0.37500000       0.00000000 </v>
   <v>      -0.18750000       0.06250000       0.00000000 </v>
   <v>      -0.25000000      -0.18750000       0.00000000 </v>
   <v>      -0.06250000      -0.25000000       0.00000000 </v>
   <v>      -0.25000000      -0.06250000       0.00000000 </v>
   <v>      -0.06250000       0.18750000       0.00000000 </v>
   <v>       0.18750000       0.25000000       0.00000000 </v>
   <v>      -0.06250000       0.06250000       0.00000000 </v>
   <v>      -0.12500000      -0.06250000       0.00000000 </v>
   <v>      -0.06250000      -0.12500000       0.00000000 </v>
   <v>       0.18750000       0.18750000       0.00000000 </v>
   <v>      -0.00000000       0.18750000       0.00000000 </v>
   <v>      -0.18750000       0.00000000       0.00000000 </v>
   <v>       0.31250000       0.18750000       0.00000000 </v>
   <v>       0.12500000       0.31250000       0.00000000 </v>
   <v>      -0.18750000       0.12500000       0.00000000 </v>
   <v>       0.12500000      -0.18750000       0.00000000 </v>
   <v>      -0.18750000      -0.31250000       0.00000000 </v>
   <v>      -0.31250000      -0.12500000       0.00000000 </v>
   <v>       0.43750000       0.18750000       0.00000000 </v>
   <v>       0.25000000       0.43750000       0.00000000 </v>
   <v>      -0.18750000       0.25000000       0.00000000 </v>
   <v>       0.25000000      -0.18750000       0.00000000 </v>
   <v>      -0.18750000      -0.43750000       0.00000000 </v>
   <v>      -0.43750000      -0.25000000       0.00000000 </v>
   <v>      -0.43750000       0.18750000       0.00000000 </v>
   <v>       0.37500000      -0.43750000       0.00000000 </v>
   <v>      -0.18750000       0.37500000       0.00000000 </v>
   <v>       0.37500000      -0.18750000       0.00000000 </v>
   <v>      -0.18750000       0.43750000       0.00000000 </v>
   <v>       0.43750000      -0.37500000       0.00000000 </v>
   <v>      -0.31250000       0.18750000       0.00000000 </v>
   <v>       0.50000000      -0.31250000       0.00000000 </v>
   <v>      -0.18750000       0.50000000       0.00000000 </v>
   <v>       0.50000000      -0.18750000       0.00000000 </v>
   <v>      -0.18750000       0.31250000       0.00000000 </v>
   <v>       0.31250000       0.50000000       0.00000000 </v>
   <v>      -0.18750000       0.18750000       0.00000000 </v>
   <v>      -0.37500000      -0.18750000       0.00000000 </v>
   <v>      -0.18750000      -0.37500000       0.00000000 </v>
   <v>       0.31250000       0.31250000       0.00000000 </v>
   <v>      -0.00000000       0.31250000       0.00000000 </v>
   <v>      -0.31250000       0.00000000       0.00000000 </v>
   <v>       0.43750000       0.31250000       0.00000000 </v>
   <v>       0.12500000       0.43750000       0.00000000 </v>
   <v>      -0.31250000       0.12500000       0.00000000 </v>
   <v>       0.12500000      -0.31250000       0.00000000 </v>
   <v>      -0.31250000      -0.43750000       0.00000000 </v>
   <v>      -0.43750000      -0.12500000       0.00000000 </v>
   <v>      -0.43750000       0.31250000       0.00000000 </v>
   <v>       0.25000000      -0.43750000       0.00000000 </v>
   <v>      -0.31250000       0.25000000       0.00000000 </v>
   <v>       0.25000000      -0.31250000       0.00000000 </v>
   <v>      -0.31250000       0.43750000       0.00000000 </v>
   <v>       0.43750000      -0.25000000       0.00000000 </v>
   <v>      -0.31250000       0.31250000       0.00000000 </v>
   <v>       0.37500000      -0.31250000       0.00000000 </v>
   <v>      -0.31250000       0.37500000       0.00000000 </v>
   <v>       0.43750000       0.43750000       0.00000000 </v>
   <v>       0.00000000       0.43750000       0.00000000 </v>
   <v>      -0.43750000       0.00000000       0.00000000 </v>
   <v>      -0.43750000       0.43750000       0.00000000 </v>
   <v>       0.12500000      -0.43750000       0.00000000 </v>
   <v>      -0.43750000       0.12500000       0.00000000 </v>
  </varray>
  <varray name="weights" >
   <v>       0.01041667 </v>
   <v>       0.01041667 </v>
   <v>       0.01041667 </v>
   <v>       0.01041667 </v>
   <v>       0.01041667 </v>
   <v>       0.01041667 </v>
   <v>       0.01041667 </v>
   <v>       0.01041667 </v>
   <v>       0.01041667 </v>
   <v>       0.01041667 </v>
   <v>       0.01041667 </v>
   <v>       0.01041667 </v>
   <v>       0.01041667 </v>
   <v>       0.01041667 </v>
   <v>       0.01041667 </v>
   <v>       0.01041667 </v>
   <v>       0.01041667 </v>
   <v>       0.01041667 </v>
   <v>       0.01041667 </v>
   <v>       0.01041667 </v>
   <v>       0.01041667 </v>
   <v>       0.01041667 </v>
   <v>       0.01041667 </v>
   <v>       0.01041667 </v>
   <v>       0.01041667 </v>
   <v>       0.01041667 </v>
   <v>       0.01041667 </v>
   <v>       0.01041667 </v>
   <v>       0.01041667 </v>
   <v>       0.01041667 </v>
   <v>       0.01041667 </v>
   <v>       0.01041667 </v>
   <v>       0.01041667 </v>
   <v>       0.01041667 </v>
   <v>       0.01041667 </v>
   <v>       0.01041667 </v>
   <v>       0.01041667 </v>
   <v>       0.01041667 </v>
   <v>       0.01041667 </v>
   <v>       0.01041667 </v>
   <v>       0.01041667 </v>
   <v>       0.01041667 </v>
   <v>       0.01041667 </v>
   <v>       0.01041667 </v>
   <v>       0.01041667 </v>
   <v>       0.01041667 </v>
   <v>       0.01041667 </v>
   <v>       0.01041667 </v>
   <v>       0.01041667 </v>
   <v>       0.01041667 </v>
   <v>       0.01041667 </v>
   <v>       0.01041667 </v>
   <v>       0.01041667 </v>
   <v>       0.01041667 </v>
   <v>       0.01041667 </v>
   <v>       0.01041667 </v>
   <v>       0.01041667 </v>
   <v>       0.01041667 </v>
   <v>       0.01041667 </v>
   <v>       0.01041667 </v>
   <v>       0.01041667 </v>
   <v>       0.01041667 </v>
   <v>       0.01041667 </v>
   <v>       0.01041667 </v>
   <v>       0.01041667 </v>
   <v>       0.01041667 </v>
   <v>       0.01041667 </v>
   <v>       0.01041667 </v>
   <v>       0.01041667 </v>
   <v>       0.01041667 </v>
   <v>       0.01041667 </v>
   <v>       0.01041667 </v>
   <v>       0.01041667 </v>
   <v>       0.01041667 </v>
   <v>       0.01041667 </v>
   <v>       0.01041667 </v>
   <v>       0.01041667 </v>
   <v>       0.01041667 </v>
   <v>       0.01041667 </v>
   <v>       0.01041667 </v>
   <v>       0.01041667 </v>
   <v>       0.01041667 </v>
   <v>       0.01041667 </v>
   <v>       0.01041667 </v>
   <v>       0.01041667 </v>
   <v>       0.01041667 </v>
   <v>       0.01041667 </v>
   <v>       0.01041667 </v>
   <v>       0.01041667 </v>
   <v>       0.01041667 </v>
   <v>       0.01041667 </v>
   <v>       0.01041667 </v>
   <v>       0.01041667 </v>
   <v>       0.01041667 </v>
   <v>       0.01041667 </v>
   <v>       0.01041667 </v>
  </varray>
 </kpoints>
 <parameters>
  <separator name="general" >
   <i type="string" name="SYSTEM">unknown system</i>
   <i type="logical" name="LCOMPAT"> F  </i>
  </separator>
  <separator name="electronic" >
   <i type="string" name="PREC">normal</i>
   <i name="ENMAX">    450.00000000</i>
   <i name="ENAUG">    605.39200000</i>
   <i name="EDIFF">      0.00000100</i>
   <i type="int" name="IALGO">    38</i>
   <i type="int" name="IWAVPR">    11</i>
   <i type="int" name="NBANDS">    78</i>
   <i name="NELECT">    130.00000000</i>
   <i type="int" name="TURBO">     0</i>
   <i type="int" name="IRESTART">     0</i>
   <i type="int" name="NREBOOT">     0</i>
   <i type="int" name="NMIN">     0</i>
   <i name="EREF">      0.00000000</i>
   <separator name="electronic smearing" >
    <i type="int" name="ISMEAR">     2</i>
    <i name="SIGMA">      0.20000000</i>
    <i name="KSPACING">      0.50000000</i>
    <i type="logical" name="KGAMMA"> T  </i>
   </separator>
   <separator name="electronic projectors" >
    <i type="logical" name="LREAL"> F  </i>
    <v name="ROPT">      0.00000000      0.00000000      0.00000000      0.00000000</v>
    <i type="int" name="LMAXPAW">  -100</i>
    <i type="int" name="LMAXMIX">     2</i>
    <i type="logical" name="NLSPLINE"> F  </i>
   </separator>
   <separator name="electronic startup" >
    <i type="int" name="ISTART">     0</i>
    <i type="int" name="ICHARG">     2</i>
    <i type="int" name="INIWAV">     1</i>
   </separator>
   <separator name="electronic spin" >
    <i type="int" name="ISPIN">     1</i>
    <i type="logical" name="LNONCOLLINEAR"> F  </i>
    <v name="MAGMOM">      1.00000000      1.00000000      1.00000000      1.00000000      1.00000000      1.00000000      1.00000000      1.00000000      1.00000000      1.00000000      1.00000000      1.00000000      1.00000000      1.00000000      1.00000000</v>
    <i name="NUPDOWN">     -1.00000000</i>
    <i type="logical" name="LSORBIT"> F  </i>
    <v name="SAXIS">      0.00000000      0.00000000      1.00000000</v>
    <i type="logical" name="LSPIRAL"> F  </i>
    <v name="QSPIRAL">      0.00000000      0.00000000      0.00000000</v>
    <i type="logical" name="LZEROZ"> F  </i>
   </separator>
   <separator name="electronic exchange-correlation" >
    <i type="logical" name="LASPH"> F  </i>
    <i type="logical" name="LMETAGGA"> F  </i>
   </separator>
   <separator name="electronic convergence" >
    <i type="int" name="NELM">    60</i>
    <i type="int" name="NELMDL">    -5</i>
    <i type="int" name="NELMIN">     8</i>
    <i name="ENINI">    450.00000000</i>
    <separator name="electronic convergence detail" >
     <i type="logical" name="LDIAG"> T  </i>
     <i type="logical" name="LSUBROT"> F  </i>
     <i name="WEIMIN">      0.00100000</i>
     <i name="EBREAK">      0.00000000</i>
     <i name="DEPER">      0.30000000</i>
     <i type="int" name="NRMM">     4</i>
     <i name="TIME">      0.40000000</i>
    </separator>
   </separator>
   <separator name="electronic mixer" >
    <i name="AMIX">      0.40000000</i>
    <i name="BMIX">      1.00000000</i>
    <i name="AMIN">      0.10000000</i>
    <i name="AMIX_MAG">      1.60000000</i>
    <i name="BMIX_MAG">      1.00000000</i>
    <separator name="electronic mixer details" >
     <i type="int" name="IMIX">     4</i>
     <i type="logical" name="MIXFIRST"> F  </i>
     <i type="int" name="MAXMIX">   -45</i>
     <i name="WC">    100.00000000</i>
     <i type="int" name="INIMIX">     1</i>
     <i type="int" name="MIXPRE">     1</i>
     <i type="int" name="MREMOVE">     5</i>
    </separator>
   </separator>
   <separator name="electronic dipolcorrection" >
    <i type="logical" name="LDIPOL"> T  </i>
    <i type="logical" name="LMONO"> F  </i>
    <i type="int" name="IDIPOL">     3</i>
    <i name="EPSILON">      1.00000000</i>
    <v name="DIPOL">   -100.00000000   -100.00000000   -100.00000000</v>
    <i name="EFIELD">      0.00000000</i>
   </separator>
  </separator>
  <separator name="grids" >
   <i type="int" name="NGX">    28</i>
   <i type="int" name="NGY">    28</i>
   <i type="int" name="NGZ">   120</i>
   <i type="int" name="NGXF">    56</i>
   <i type="int" name="NGYF">    56</i>
   <i type="int" name="NGZF">   240</i>
   <i type="logical" name="ADDGRID"> F  </i>
  </separator>
  <separator name="ionic" >
   <i type="int" name="NSW">  1500</i>
   <i type="int" name="IBRION">     2</i>
   <i type="int" name="MDALGO">     0</i>
   <i type="int" name="ISIF">     2</i>
   <i name="PSTRESS">      0.00000000</i>
   <i name="EDIFFG">     -0.01000000</i>
   <i type="int" name="NFREE">     1</i>
   <i name="POTIM">      0.20000000</i>
   <i name="SMASS">     -3.00000000</i>
   <i name="SCALEE">      1.00000000</i>
  </separator>
  <separator name="ionic md" >
   <i name="TEBEG">      0.00010000</i>
   <i name="TEEND">      0.00010000</i>
   <i type="int" name="NBLOCK">     1</i>
   <i type="int" name="KBLOCK">  1500</i>
   <i type="int" name="NPACO">   256</i>
   <i name="APACO">     16.00000000</i>
  </separator>
  <separator name="symmetry" >
   <i type="int" name="ISYM">     2</i>
   <i name="SYMPREC">      0.00001000</i>
  </separator>
  <separator name="dos" >
   <i type="int" name="LORBIT">     0</i>
   <v name="RWIGS">     -1.00000000     -1.00000000     -1.00000000     -1.00000000</v>
   <i type="int" name="NEDOS">   301</i>
   <i name="EMIN">     10.00000000</i>
   <i name="EMAX">    -10.00000000</i>
   <i name="EFERMI">      0.00000000</i>
  </separator>
  <separator name="writing" >
   <i type="int" name="NWRITE">     2</i>
   <i type="logical" name="LWAVE"> F  </i>
   <i type="logical" name="LDOWNSAMPLE"> F  </i>
   <i type="logical" name="LCHARG"> T  </i>
   <i type="logical" name="LPARD"> F  </i>
   <i type="logical" name="LVTOT"> F  </i>
   <i type="logical" name="LVHAR"> F  </i>
   <i type="logical" name="LELF"> F  </i>
   <i type="logical" name="LOPTICS"> F  </i>
   <v name="STM">      0.00000000      0.00000000      0.00000000      0.00000000      0.00000000      0.00000000      0.00000000</v>
  </separator>
  <separator name="performance" >
   <i type="int" name="NPAR">     2</i>
   <i type="int" name="NSIM">     4</i>
   <i type="int" name="NBLK">    -1</i>
   <i type="logical" name="LPLANE"> T  </i>
   <i type="logical" name="LSCALAPACK"> T  </i>
   <i type="logical" name="LSCAAWARE"> F  </i>
   <i type="logical" name="LSCALU"> F  </i>
   <i type="logical" name="LASYNC"> F  </i>
   <i type="logical" name="LORBITALREAL"> F  </i>
  </separator>
  <separator name="miscellaneous" >
   <i type="int" name="IDIOT">     3</i>
   <i type="int" name="ISPECIAL">     0</i>
   <i type="logical" name="LMUSIC"> F  </i>
   <v name="POMASS">    195.08000000    102.90600000     16.00000000      1.00000000</v>
   <v name="DARWINR">      0.00000000      0.00000000      0.00000000      0.00000000</v>
   <v name="DARWINV">      1.00000000      1.00000000      1.00000000      1.00000000</v>
   <i type="logical" name="LCORR"> T  </i>
  </separator>
  <i type="logical" name="GGA_COMPAT"> T  </i>
  <i type="logical" name="LBERRY"> F  </i>
  <i type="int" name="ICORELEVEL">     0</i>
  <i type="logical" name="LDAU"> F  </i>
  <i type="int" name="I_CONSTRAINED_M">     0</i>
  <separator name="electronic exchange-correlation" >
   <i type="string" name="GGA">91</i>
   <i type="int" name="VOSKOWN">     0</i>
   <i type="logical" name="LHFCALC"> F  </i>
   <i type="string" name="PRECFOCK"></i>
   <i type="logical" name="LSYMGRAD"> F  </i>
   <i type="logical" name="LHFONE"> F  </i>
   <i type="logical" name="LRHFCALC"> F  </i>
   <i type="logical" name="LTHOMAS"> F  </i>
   <i type="logical" name="LMODELHF"> F  </i>
   <i name="ENCUT4O">     -1.00000000</i>
   <i type="int" name="EXXOEP">     0</i>
   <i type="int" name="FOURORBIT">     0</i>
   <i name="AEXX">      0.00000000</i>
   <i name="HFALPHA">      0.00000000</i>
   <i name="MCALPHA">      0.00000000</i>
   <i name="ALDAX">      1.00000000</i>
   <i name="AGGAX">      1.00000000</i>
   <i name="ALDAC">      1.00000000</i>
   <i name="AGGAC">      1.00000000</i>
   <i type="int" name="NKREDX">     1</i>
   <i type="int" name="NKREDY">     1</i>
   <i type="int" name="NKREDZ">     1</i>
   <i type="logical" name="SHIFTRED"> F  </i>
   <i type="logical" name="ODDONLY"> F  </i>
   <i type="logical" name="EVENONLY"> F  </i>
   <i type="int" name="LMAXFOCK">     0</i>
   <i type="int" name="NMAXFOCKAE">     0</i>
   <i type="logical" name="LFOCKAEDFT"> F  </i>
   <i name="HFSCREEN">      0.00000000</i>
   <i name="HFSCREENC">      0.00000000</i>
   <i type="int" name="NBANDSGWLOW">     0</i>
  </separator>
  <separator name="vdW DFT" >
   <i type="logical" name="LUSE_VDW"> F  </i>
   <i name="Zab_VDW">     -0.84910000</i>
   <i name="PARAM1">      0.12340000</i>
   <i name="PARAM2">      1.00000000</i>
   <i name="PARAM3">      0.00000000</i>
  </separator>
  <separator name="model GW" >
   <i type="int" name="MODEL_GW">     0</i>
   <i name="MODEL_EPS0">     18.26964953</i>
   <i name="MODEL_ALPHA">      1.00000000</i>
  </separator>
  <separator name="linear response parameters" >
   <i type="logical" name="LEPSILON"> F  </i>
   <i type="logical" name="LRPA"> F  </i>
   <i type="logical" name="LNABLA"> F  </i>
   <i type="logical" name="LVEL"> F  </i>
   <i type="int" name="KINTER">     0</i>
   <i name="CSHIFT">      0.10000000</i>
   <i name="OMEGAMAX">     -1.00000000</i>
   <i name="DEG_THRESHOLD">      0.00200000</i>
   <i name="RTIME">     -0.10000000</i>
   <i name="WPLASMAI">      0.00000000</i>
   <v name="DFIELD">      0.00000000      0.00000000      0.00000000</v>
   <v name="WPLASMA">      0.00000000      0.00000000      0.00000000      0.00000000      0.00000000      0.00000000      0.00000000      0.00000000      0.00000000</v>
  </separator>
  <separator name="orbital magnetization" >
   <i type="logical" name="NUCIND"> F  </i>
   <v name="MAGPOS">      0.00000000      0.00000000      0.00000000</v>
   <i type="logical" name="LNICSALL"> T  </i>
   <i type="logical" name="ORBITALMAG"> F  </i>
   <i type="logical" name="LMAGBLOCH"> F  </i>
   <i type="logical" name="LCHIMAG"> F  </i>
   <i type="logical" name="LGAUGE"> T  </i>
   <i type="int" name="MAGATOM">     0</i>
   <v name="MAGDIPOL">      0.00000000      0.00000000      0.00000000</v>
   <v name="AVECCONST">      0.00000000      0.00000000      0.00000000</v>
  </separator>
  <separator name="response functions" >
   <i type="logical" name="LADDER"> F  </i>
   <i type="logical" name="LRPAFORCE"> F  </i>
   <i type="logical" name="LFXC"> F  </i>
   <i type="logical" name="LHARTREE"> T  </i>
   <i type="int" name="IBSE">     0</i>
   <v type="int" name="KPOINT">    -1     0     0     0</v>
   <i type="logical" name="LTCTE"> F  </i>
   <i type="logical" name="LTETE"> F  </i>
   <i type="logical" name="LTRIPLET"> F  </i>
   <i type="logical" name="LFXCEPS"> F  </i>
   <i type="logical" name="LFXHEG"> F  </i>
   <i type="int" name="NATURALO">     2</i>
   <i type="logical" name="L2ORDER"> F  </i>
   <i type="logical" name="LMP2LT"> F  </i>
   <i type="logical" name="LUSEW"> F  </i>
   <i name="ENCUTGW">     -2.00000000</i>
   <i name="ENCUTGWSOFT">     -2.00000000</i>
   <i name="ENCUTLF">     -1.00000000</i>
   <i type="int" name="LMAXMP2">    -1</i>
   <i name="SCISSOR">      0.00000000</i>
   <i type="int" name="NOMEGA">     0</i>
   <i type="int" name="NOMEGAR">     0</i>
   <i type="int" name="NBANDSGW">    -1</i>
   <i type="int" name="NBANDSO">    -1</i>
   <i type="int" name="NBANDSV">    -1</i>
   <i type="int" name="NELM">     1</i>
   <i type="int" name="NELMHF">     1</i>
   <i type="int" name="DIM">     3</i>
   <i type="int" name="ANTIRES">     0</i>
   <i name="OMEGAMAX">    -30.00000000</i>
   <i name="OMEGAMIN">    -30.00000000</i>
   <i name="OMEGATL">   -200.00000000</i>
   <i type="int" name="OMEGAGRID">   140</i>
   <i name="CSHIFT">     -0.10000000</i>
   <i type="logical" name="SELFENERGY"> F  </i>
   <i type="logical" name="LSPECTRAL"> F  </i>
   <i type="logical" name="LSPECTRALGW"> F  </i>
   <i type="logical" name="LSINGLES"> F  </i>
   <i type="logical" name="LFERMIGW"> F  </i>
   <i type="logical" name="ODDONLYGW"> F  </i>
   <i type="logical" name="EVENONLYGW"> F  </i>
   <i type="int" name="NKREDLFX">     1</i>
   <i type="int" name="NKREDLFY">     1</i>
   <i type="int" name="NKREDLFZ">     1</i>
   <i type="int" name="MAXMEM">  2800</i>
   <i type="int" name="TELESCOPE">     0</i>
   <i type="int" name="TAUPAR">     1</i>
   <i type="int" name="OMEGAPAR">    -1</i>
   <i name="LAMBDA">      1.00000000</i>
  </separator>
  <separator name="External order field" >
   <i name="OFIELD_KAPPA">      0.00000000</i>
   <v name="OFIELD_K">      0.00000000      0.00000000      0.00000000</v>
   <i name="OFIELD_Q6_NEAR">      0.00000000</i>
   <i name="OFIELD_Q6_FAR">      0.00000000</i>
   <i name="OFIELD_A">      0.00000000</i>
  </separator>
 </parameters>
 <atominfo>
  <atoms>      15 </atoms>
  <types>       4 </types>
  <array name="atoms" >
   <dimension dim="1">ion</dimension>
   <field type="string">element</field>
   <field type="int">atomtype</field>
   <set>
    <rc><c>Pt</c><c>   1</c></rc>
    <rc><c>Pt</c><c>   1</c></rc>
    <rc><c>Pt</c><c>   1</c></rc>
    <rc><c>Pt</c><c>   1</c></rc>
    <rc><c>Pt</c><c>   1</c></rc>
    <rc><c>Pt</c><c>   1</c></rc>
    <rc><c>Pt</c><c>   1</c></rc>
    <rc><c>Pt</c><c>   1</c></rc>
    <rc><c>Pt</c><c>   1</c></rc>
    <rc><c>Rh</c><c>   2</c></rc>
    <rc><c>Rh</c><c>   2</c></rc>
    <rc><c>Rh</c><c>   2</c></rc>
    <rc><c>O </c><c>   3</c></rc>
    <rc><c>O </c><c>   3</c></rc>
    <rc><c>H </c><c>   4</c></rc>
   </set>
  </array>
  <array name="atomtypes" >
   <dimension dim="1">type</dimension>
   <field type="int">atomspertype</field>
   <field type="string">element</field>
   <field>mass</field>
   <field>valence</field>
   <field type="string">pseudopotential</field>
   <set>
    <rc><c>   9</c><c>Pt</c><c>    195.08000000</c><c>     10.00000000</c><c> PAW_PBE Pt 05Jan2001                   </c></rc>
    <rc><c>   3</c><c>Rh</c><c>    102.90600000</c><c>      9.00000000</c><c> PAW_PBE Rh 06Sep2000                   </c></rc>
    <rc><c>   2</c><c>O </c><c>     16.00000000</c><c>      6.00000000</c><c> PAW_PBE O 08Apr2002                    </c></rc>
    <rc><c>   1</c><c>H </c><c>      1.00000000</c><c>      1.00000000</c><c> PAW_PBE H 15Jun2001                    </c></rc>
   </set>
  </array>
 </atominfo>
 <structure name="initialpos" >
  <crystal>
   <varray name="basis" >
    <v>       4.88428255       0.00000000       0.00000000 </v>
    <v>       2.44214127       4.22991277       0.00000000 </v>
    <v>       0.00000000       0.00000000      22.10741862 </v>
   </varray>
   <i name="volume">    456.74123834 </i>
   <varray name="rec_basis" >
    <v>       0.20473836      -0.11820575       0.00000000 </v>
    <v>      -0.00000000       0.23641149       0.00000000 </v>
    <v>       0.00000000       0.00000000       0.04523368 </v>
   </varray>
  </crystal>
  <varray name="positions" >
   <v>       0.30286415       0.49410690       0.00209390 </v>
   <v>       0.63619748       0.82744023       0.00209390 </v>
   <v>       0.96953081       0.16077357       0.00209390 </v>
   <v>       0.63619748       0.49410690       0.10624323 </v>
   <v>       0.96953081       0.82744023       0.10624323 </v>
   <v>       0.30286415       0.16077357       0.10624323 </v>
   <v>       0.30286415       0.49410690       0.30505139 </v>
   <v>       0.63619748       0.82744023       0.30505139 </v>
   <v>       0.96953081       0.16077357       0.30505139 </v>
   <v>       0.96953081       0.49410690       0.20429559 </v>
   <v>       0.30286415       0.82744023       0.20429559 </v>
   <v>       0.63619748       0.16077357       0.20429559 </v>
   <v>       0.76871130       0.99259116       0.43532491 </v>
   <v>       0.63852722       0.81279312       0.40965579 </v>
   <v>       0.99225302       0.83012516       0.44138925 </v>
  </varray>
  <varray name="selective"  type="logical" >
   <v type="logical" >  F  F  F </v>
   <v type="logical" >  F  F  F </v>
   <v type="logical" >  F  F  F </v>
   <v type="logical" >  F  F  F </v>
   <v type="logical" >  F  F  F </v>
   <v type="logical" >  F  F  F </v>
   <v type="logical" >  T  T  T </v>
   <v type="logical" >  T  T  T </v>
   <v type="logical" >  T  T  T </v>
   <v type="logical" >  T  T  T </v>
   <v type="logical" >  T  T  T </v>
   <v type="logical" >  T  T  T </v>
   <v type="logical" >  T  T  T </v>
   <v type="logical" >  T  T  T </v>
   <v type="logical" >  T  T  T </v>
  </varray>
  <nose>
   <v>      -3.00000000       0.00000000       0.00010000       0.00010000 </v>
  </nose>
 </structure>
 <calculation>
  <scstep>
   <time name="dav">    7.23    7.36</time>
   <time name="total">    7.31    7.50</time>
   <dipole>
    <v name="dipole">      0.00000000       0.00000000      -0.00009191 </v>
    <i name="Tr[quadrupol]">   -529.30827359 </i>
    <i name="Echarged">      0.00000000 </i>
    <i name="Edipol_quadrupol">      0.00000000 </i>
    <i name="Eion">      0.00000000 </i>
   </dipole>
   <energy>
    <i name="alphaZ">    486.60257885 </i>
    <i name="ewald">  29234.84184244 </i>
    <i name="hartreedc"> -39072.23900476 </i>
    <i name="XCdc">     32.53985378 </i>
    <i name="pawpsdc">   7160.86107357 </i>
    <i name="pawaedc">  -6784.17589151 </i>
    <i name="eentropy">      0.00290960 </i>
    <i name="bandstr">    918.64102238 </i>
    <i name="atom">   9288.74489069 </i>
    <i name="e_fr_energy">   1265.81927504 </i>
    <i name="e_wo_entrp">   1265.81636545 </i>
    <i name="e_0_energy">   1265.81854764 </i>
   </energy>
  </scstep>
  <scstep>
   <time name="dav">    7.26    7.26</time>
   <time name="total">    7.27    7.28</time>
   <dipole>
    <v name="dipole">      0.00000000       0.00000000      -0.00009191 </v>
    <i name="Tr[quadrupol]">   -529.30827359 </i>
    <i name="Echarged">      0.00000000 </i>
    <i name="Edipol_quadrupol">      0.00000000 </i>
    <i name="Eion">      0.00000000 </i>
   </dipole>
   <energy>
    <i name="e_fr_energy">     55.75698017 </i>
    <i name="e_wo_entrp">     55.75958971 </i>
    <i name="e_0_energy">     55.75763256 </i>
   </energy>
  </scstep>
  <scstep>
   <time name="dav">   11.79   11.90</time>
   <time name="total">   11.81   11.91</time>
   <dipole>
    <v name="dipole">      0.00000000       0.00000000      -0.00009191 </v>
    <i name="Tr[quadrupol]">   -529.30827359 </i>
    <i name="Echarged">      0.00000000 </i>
    <i name="Edipol_quadrupol">      0.00000000 </i>
    <i name="Eion">      0.00000000 </i>
   </dipole>
   <energy>
    <i name="e_fr_energy">    -85.09903474 </i>
    <i name="e_wo_entrp">    -85.09552316 </i>
    <i name="e_0_energy">    -85.09815685 </i>
   </energy>
  </scstep>
  <scstep>
   <time name="dav">    9.34    9.34</time>
   <time name="total">    9.35    9.36</time>
   <dipole>
    <v name="dipole">      0.00000000       0.00000000      -0.00009191 </v>
    <i name="Tr[quadrupol]">   -529.30827359 </i>
    <i name="Echarged">      0.00000000 </i>
    <i name="Edipol_quadrupol">      0.00000000 </i>
    <i name="Eion">      0.00000000 </i>
   </dipole>
   <energy>
    <i name="e_fr_energy">    -96.18664570 </i>
    <i name="e_wo_entrp">    -96.19209021 </i>
    <i name="e_0_energy">    -96.18800683 </i>
   </energy>
  </scstep>
  <scstep>
   <time name="dav">    9.58    9.59</time>
   <time name="total">   10.08   10.11</time>
   <dipole>
    <v name="dipole">      0.00000000       0.00000000      -0.00009191 </v>
    <i name="Tr[quadrupol]">   -529.30827359 </i>
    <i name="Echarged">      0.00000000 </i>
    <i name="Edipol_quadrupol">      0.00000000 </i>
    <i name="Eion">      0.00000000 </i>
   </dipole>
   <energy>
    <i name="e_fr_energy">    -96.58905604 </i>
    <i name="e_wo_entrp">    -96.59379209 </i>
    <i name="e_0_energy">    -96.59024005 </i>
   </energy>
  </scstep>
  <scstep>
   <time name="dav">   11.94   11.95</time>
   <time name="total">   12.45   12.47</time>
   <dipole>
    <v name="dipole">      0.00000000       0.00000000       1.04099451 </v>
    <i name="Tr[quadrupol]">   -529.45015898 </i>
    <i name="Echarged">      0.00000000 </i>
    <i name="Edipol_quadrupol">      0.00000000 </i>
    <i name="Eion">      0.00000000 </i>
   </dipole>
   <energy>
    <i name="e_fr_energy">   -135.39635174 </i>
    <i name="e_wo_entrp">   -135.40535589 </i>
    <i name="e_0_energy">   -135.39860278 </i>
   </energy>
  </scstep>
  <scstep>
   <time name="dav">   11.54   11.55</time>
   <time name="total">   12.05   12.06</time>
   <dipole>
    <v name="dipole">      0.00000000       0.00000000      -0.53882474 </v>
    <i name="Tr[quadrupol]">   -528.35785105 </i>
    <i name="Echarged">      0.00000000 </i>
    <i name="Edipol_quadrupol">      0.00000000 </i>
    <i name="Eion">      0.00000000 </i>
   </dipole>
   <energy>
    <i name="e_fr_energy">   -103.85101680 </i>
    <i name="e_wo_entrp">   -103.85013396 </i>
    <i name="e_0_energy">   -103.85079609 </i>
   </energy>
  </scstep>
  <scstep>
   <time name="dav">   10.83   10.84</time>
   <time name="total">   11.33   11.34</time>
   <dipole>
    <v name="dipole">      0.00000000       0.00000000       0.05577964 </v>
    <i name="Tr[quadrupol]">   -530.95166245 </i>
    <i name="Echarged">      0.00000000 </i>
    <i name="Edipol_quadrupol">      0.00000000 </i>
    <i name="Eion">      0.00000000 </i>
   </dipole>
   <energy>
    <i name="e_fr_energy">    -93.23884765 </i>
    <i name="e_wo_entrp">    -93.22532644 </i>
    <i name="e_0_energy">    -93.23546735 </i>
   </energy>
  </scstep>
  <scstep>
   <time name="dav">    9.70    9.71</time>
   <time name="total">   10.21   10.21</time>
   <dipole>
    <v name="dipole">      0.00000000       0.00000000       0.14775316 </v>
    <i name="Tr[quadrupol]">   -529.14569872 </i>
    <i name="Echarged">      0.00000000 </i>
    <i name="Edipol_quadrupol">      0.00000000 </i>
    <i name="Eion">      0.00000000 </i>
   </dipole>
   <energy>
    <i name="e_fr_energy">    -91.06188121 </i>
    <i name="e_wo_entrp">    -91.05320077 </i>
    <i name="e_0_energy">    -91.05971110 </i>
   </energy>
  </scstep>
  <scstep>
   <time name="dav">   10.51   10.51</time>
   <time name="total">   11.00   11.01</time>
   <dipole>
    <v name="dipole">      0.00000000       0.00000000       0.03494142 </v>
    <i name="Tr[quadrupol]">   -529.71641722 </i>
    <i name="Echarged">      0.00000000 </i>
    <i name="Edipol_quadrupol">      0.00000000 </i>
    <i name="Eion">      0.00000000 </i>
   </dipole>
   <energy>
    <i name="e_fr_energy">    -89.31571150 </i>
    <i name="e_wo_entrp">    -89.31055857 </i>
    <i name="e_0_energy">    -89.31442327 </i>
   </energy>
  </scstep>
  <scstep>
   <time name="dav">    9.80    9.80</time>
   <time name="total">   10.29   10.30</time>
   <dipole>
    <v name="dipole">      0.00000000       0.00000000       0.03749406 </v>
    <i name="Tr[quadrupol]">   -529.46615602 </i>
    <i name="Echarged">      0.00000000 </i>
    <i name="Edipol_quadrupol">      0.00000000 </i>
    <i name="Eion">      0.00000000 </i>
   </dipole>
   <energy>
    <i name="e_fr_energy">    -88.36622877 </i>
    <i name="e_wo_entrp">    -88.36190383 </i>
    <i name="e_0_energy">    -88.36514753 </i>
   </energy>
  </scstep>
  <scstep>
   <time name="dav">    9.75    9.75</time>
   <time name="total">   10.26   10.26</time>
   <dipole>
    <v name="dipole">      0.00000000       0.00000000       0.04001022 </v>
    <i name="Tr[quadrupol]">   -529.30318887 </i>
    <i name="Echarged">      0.00000000 </i>
    <i name="Edipol_quadrupol">      0.00000000 </i>
    <i name="Eion">      0.00000000 </i>
   </dipole>
   <energy>
    <i name="e_fr_energy">    -87.95928289 </i>
    <i name="e_wo_entrp">    -87.94860350 </i>
    <i name="e_0_energy">    -87.95661304 </i>
   </energy>
  </scstep>
  <scstep>
   <time name="dav">    9.38    9.38</time>
   <time name="total">    9.88    9.89</time>
   <dipole>
    <v name="dipole">      0.00000000       0.00000000       0.02979805 </v>
    <i name="Tr[quadrupol]">   -529.31430219 </i>
    <i name="Echarged">      0.00000000 </i>
    <i name="Edipol_quadrupol">      0.00000000 </i>
    <i name="Eion">      0.00000000 </i>
   </dipole>
   <energy>
    <i name="e_fr_energy">    -87.91597305 </i>
    <i name="e_wo_entrp">    -87.90306629 </i>
    <i name="e_0_energy">    -87.91274636 </i>
   </energy>
  </scstep>
  <scstep>
   <time name="dav">   10.44   10.45</time>
   <time name="total">   10.94   10.95</time>
   <dipole>
    <v name="dipole">      0.00000000       0.00000000       0.00442573 </v>
    <i name="Tr[quadrupol]">   -529.54841011 </i>
    <i name="Echarged">      0.00000000 </i>
    <i name="Edipol_quadrupol">      0.00000000 </i>
    <i name="Eion">      0.00000000 </i>
   </dipole>
   <energy>
    <i name="e_fr_energy">    -87.90368926 </i>
    <i name="e_wo_entrp">    -87.89860484 </i>
    <i name="e_0_energy">    -87.90241816 </i>
   </energy>
  </scstep>
  <scstep>
   <time name="dav">   10.83   10.84</time>
   <time name="total">   11.33   11.34</time>
   <dipole>
    <v name="dipole">      0.00000000       0.00000000       0.02586590 </v>
    <i name="Tr[quadrupol]">   -529.42391325 </i>
    <i name="Echarged">      0.00000000 </i>
    <i name="Edipol_quadrupol">      0.00000000 </i>
    <i name="Eion">      0.00000000 </i>
   </dipole>
   <energy>
    <i name="e_fr_energy">    -87.71053230 </i>
    <i name="e_wo_entrp">    -87.70417807 </i>
    <i name="e_0_energy">    -87.70894374 </i>
   </energy>
  </scstep>
  <scstep>
   <time name="dav">    9.38    9.38</time>
   <time name="total">    9.88    9.88</time>
   <dipole>
    <v name="dipole">      0.00000000       0.00000000       0.02706262 </v>
    <i name="Tr[quadrupol]">   -529.44318827 </i>
    <i name="Echarged">      0.00000000 </i>
    <i name="Edipol_quadrupol">      0.00000000 </i>
    <i name="Eion">      0.00000000 </i>
   </dipole>
   <energy>
    <i name="e_fr_energy">    -87.66629664 </i>
    <i name="e_wo_entrp">    -87.65824477 </i>
    <i name="e_0_energy">    -87.66428367 </i>
   </energy>
  </scstep>
  <scstep>
   <time name="dav">    9.68    9.68</time>
   <time name="total">   10.17   10.18</time>
   <dipole>
    <v name="dipole">      0.00000000       0.00000000       0.02758180 </v>
    <i name="Tr[quadrupol]">   -529.48003417 </i>
    <i name="Echarged">      0.00000000 </i>
    <i name="Edipol_quadrupol">      0.00000000 </i>
    <i name="Eion">      0.00000000 </i>
   </dipole>
   <energy>
    <i name="e_fr_energy">    -87.64047176 </i>
    <i name="e_wo_entrp">    -87.63182687 </i>
    <i name="e_0_energy">    -87.63831054 </i>
   </energy>
  </scstep>
  <scstep>
   <time name="dav">    9.76    9.77</time>
   <time name="total">   10.26   10.27</time>
   <dipole>
    <v name="dipole">      0.00000000       0.00000000       0.02513177 </v>
    <i name="Tr[quadrupol]">   -529.52109642 </i>
    <i name="Echarged">      0.00000000 </i>
    <i name="Edipol_quadrupol">      0.00000000 </i>
    <i name="Eion">      0.00000000 </i>
   </dipole>
   <energy>
    <i name="e_fr_energy">    -87.63614003 </i>
    <i name="e_wo_entrp">    -87.62809485 </i>
    <i name="e_0_energy">    -87.63412874 </i>
   </energy>
  </scstep>
  <scstep>
   <time name="dav">    9.58    9.59</time>
   <time name="total">   10.09   10.09</time>
   <dipole>
    <v name="dipole">      0.00000000       0.00000000       0.02475475 </v>
    <i name="Tr[quadrupol]">   -529.56378509 </i>
    <i name="Echarged">      0.00000000 </i>
    <i name="Edipol_quadrupol">      0.00000000 </i>
    <i name="Eion">      0.00000000 </i>
   </dipole>
   <energy>
    <i name="e_fr_energy">    -87.63408081 </i>
    <i name="e_wo_entrp">    -87.62652058 </i>
    <i name="e_0_energy">    -87.63219075 </i>
   </energy>
  </scstep>
  <scstep>
   <time name="dav">    9.62    9.63</time>
   <time name="total">   10.12   10.13</time>
   <dipole>
    <v name="dipole">      0.00000000       0.00000000       0.02532379 </v>
    <i name="Tr[quadrupol]">   -529.63529744 </i>
    <i name="Echarged">      0.00000000 </i>
    <i name="Edipol_quadrupol">      0.00000000 </i>
    <i name="Eion">      0.00000000 </i>
   </dipole>
   <energy>
    <i name="e_fr_energy">    -87.63339183 </i>
    <i name="e_wo_entrp">    -87.62597692 </i>
    <i name="e_0_energy">    -87.63153810 </i>
   </energy>
  </scstep>
  <scstep>
   <time name="dav">    9.56    9.56</time>
   <time name="total">   10.06   10.06</time>
   <dipole>
    <v name="dipole">      0.00000000       0.00000000       0.02543438 </v>
    <i name="Tr[quadrupol]">   -529.66665303 </i>
    <i name="Echarged">      0.00000000 </i>
    <i name="Edipol_quadrupol">      0.00000000 </i>
    <i name="Eion">      0.00000000 </i>
   </dipole>
   <energy>
    <i name="e_fr_energy">    -87.63306581 </i>
    <i name="e_wo_entrp">    -87.62577696 </i>
    <i name="e_0_energy">    -87.63124360 </i>
   </energy>
  </scstep>
  <scstep>
   <time name="dav">    8.50    8.50</time>
   <time name="total">    9.00    9.01</time>
   <dipole>
    <v name="dipole">      0.00000000       0.00000000       0.02595746 </v>
    <i name="Tr[quadrupol]">   -529.70922430 </i>
    <i name="Echarged">      0.00000000 </i>
    <i name="Edipol_quadrupol">      0.00000000 </i>
    <i name="Eion">      0.00000000 </i>
   </dipole>
   <energy>
    <i name="e_fr_energy">    -87.63285918 </i>
    <i name="e_wo_entrp">    -87.62558552 </i>
    <i name="e_0_energy">    -87.63104077 </i>
   </energy>
  </scstep>
  <scstep>
   <time name="dav">    8.90    8.91</time>
   <time name="total">    9.40    9.41</time>
   <dipole>
    <v name="dipole">      0.00000000       0.00000000       0.02561272 </v>
    <i name="Tr[quadrupol]">   -529.74479499 </i>
    <i name="Echarged">      0.00000000 </i>
    <i name="Edipol_quadrupol">      0.00000000 </i>
    <i name="Eion">      0.00000000 </i>
   </dipole>
   <energy>
    <i name="e_fr_energy">    -87.63286871 </i>
    <i name="e_wo_entrp">    -87.62560339 </i>
    <i name="e_0_energy">    -87.63105238 </i>
   </energy>
  </scstep>
  <scstep>
   <time name="dav">    9.19    9.19</time>
   <time name="total">    9.69    9.69</time>
   <dipole>
    <v name="dipole">      0.00000000       0.00000000       0.02539167 </v>
    <i name="Tr[quadrupol]">   -529.75963449 </i>
    <i name="Echarged">      0.00000000 </i>
    <i name="Edipol_quadrupol">      0.00000000 </i>
    <i name="Eion">      0.00000000 </i>
   </dipole>
   <energy>
    <i name="e_fr_energy">    -87.63293851 </i>
    <i name="e_wo_entrp">    -87.62567764 </i>
    <i name="e_0_energy">    -87.63112329 </i>
   </energy>
  </scstep>
  <scstep>
   <time name="dav">    8.89    8.90</time>
   <time name="total">    9.39    9.40</time>
   <dipole>
    <v name="dipole">      0.00000000       0.00000000       0.02544108 </v>
    <i name="Tr[quadrupol]">   -529.78712793 </i>
    <i name="Echarged">      0.00000000 </i>
    <i name="Edipol_quadrupol">      0.00000000 </i>
    <i name="Eion">      0.00000000 </i>
   </dipole>
   <energy>
    <i name="e_fr_energy">    -87.63313338 </i>
    <i name="e_wo_entrp">    -87.62585422 </i>
    <i name="e_0_energy">    -87.63131359 </i>
   </energy>
  </scstep>
  <scstep>
   <time name="dav">    9.10    9.10</time>
   <time name="total">    9.61    9.61</time>
   <dipole>
    <v name="dipole">      0.00000000       0.00000000       0.02411759 </v>
    <i name="Tr[quadrupol]">   -529.79650618 </i>
    <i name="Echarged">      0.00000000 </i>
    <i name="Edipol_quadrupol">      0.00000000 </i>
    <i name="Eion">      0.00000000 </i>
   </dipole>
   <energy>
    <i name="e_fr_energy">    -87.63333380 </i>
    <i name="e_wo_entrp">    -87.62610076 </i>
    <i name="e_0_energy">    -87.63152554 </i>
   </energy>
  </scstep>
  <scstep>
   <time name="dav">    8.91    8.91</time>
   <time name="total">    9.42    9.42</time>
   <dipole>
    <v name="dipole">      0.00000000       0.00000000       0.02453584 </v>
    <i name="Tr[quadrupol]">   -529.80416248 </i>
    <i name="Echarged">      0.00000000 </i>
    <i name="Edipol_quadrupol">      0.00000000 </i>
    <i name="Eion">      0.00000000 </i>
   </dipole>
   <energy>
    <i name="e_fr_energy">    -87.63344524 </i>
    <i name="e_wo_entrp">    -87.62617691 </i>
    <i name="e_0_energy">    -87.63162816 </i>
   </energy>
  </scstep>
  <scstep>
   <time name="dav">    8.88    8.89</time>
   <time name="total">    9.38    9.39</time>
   <dipole>
    <v name="dipole">      0.00000000       0.00000000       0.02702432 </v>
    <i name="Tr[quadrupol]">   -529.82299229 </i>
    <i name="Echarged">      0.00000000 </i>
    <i name="Edipol_quadrupol">      0.00000000 </i>
    <i name="Eion">      0.00000000 </i>
   </dipole>
   <energy>
    <i name="e_fr_energy">    -87.63371567 </i>
    <i name="e_wo_entrp">    -87.62631978 </i>
    <i name="e_0_energy">    -87.63186670 </i>
   </energy>
  </scstep>
  <scstep>
   <time name="dav">    9.10    9.11</time>
   <time name="total">    9.60    9.61</time>
   <dipole>
    <v name="dipole">      0.00000000       0.00000000       0.02668258 </v>
    <i name="Tr[quadrupol]">   -529.82011747 </i>
    <i name="Echarged">      0.00000000 </i>
    <i name="Edipol_quadrupol">      0.00000000 </i>
    <i name="Eion">      0.00000000 </i>
   </dipole>
   <energy>
    <i name="e_fr_energy">    -87.63367959 </i>
    <i name="e_wo_entrp">    -87.62631527 </i>
    <i name="e_0_energy">    -87.63183851 </i>
   </energy>
  </scstep>
  <scstep>
   <time name="dav">    7.35    7.36</time>
   <time name="total">    7.85    7.86</time>
   <dipole>
    <v name="dipole">      0.00000000       0.00000000       0.02719295 </v>
    <i name="Tr[quadrupol]">   -529.82525981 </i>
    <i name="Echarged">      0.00000000 </i>
    <i name="Edipol_quadrupol">      0.00000000 </i>
    <i name="Eion">      0.00000000 </i>
   </dipole>
   <energy>
    <i name="e_fr_energy">    -87.63371318 </i>
    <i name="e_wo_entrp">    -87.62634805 </i>
    <i name="e_0_energy">    -87.63187190 </i>
   </energy>
  </scstep>
  <scstep>
   <time name="dav">    6.21    6.21</time>
   <time name="total">    6.71    6.71</time>
   <dipole>
    <v name="dipole">      0.00000000       0.00000000       0.02738528 </v>
    <i name="Tr[quadrupol]">   -529.83333158 </i>
    <i name="Echarged">      0.00000000 </i>
    <i name="Edipol_quadrupol">      0.00000000 </i>
    <i name="Eion">      0.00000000 </i>
   </dipole>
   <energy>
    <i name="e_fr_energy">    -87.63369914 </i>
    <i name="e_wo_entrp">    -87.62638758 </i>
    <i name="e_0_energy">    -87.63187125 </i>
   </energy>
  </scstep>
  <scstep>
   <time name="dav">    7.90    7.91</time>
   <time name="total">    8.41    8.41</time>
   <dipole>
    <v name="dipole">      0.00000000       0.00000000       0.02771414 </v>
    <i name="Tr[quadrupol]">   -529.83916458 </i>
    <i name="Echarged">      0.00000000 </i>
    <i name="Edipol_quadrupol">      0.00000000 </i>
    <i name="Eion">      0.00000000 </i>
   </dipole>
   <energy>
    <i name="e_fr_energy">    -87.63370817 </i>
    <i name="e_wo_entrp">    -87.62641192 </i>
    <i name="e_0_energy">    -87.63188411 </i>
   </energy>
  </scstep>
  <scstep>
   <time name="dav">    6.75    6.76</time>
   <time name="total">    7.25    7.26</time>
   <dipole>
    <v name="dipole">      0.00000000       0.00000000       0.02997180 </v>
    <i name="Tr[quadrupol]">   -529.89811766 </i>
    <i name="Echarged">      0.00000000 </i>
    <i name="Edipol_quadrupol">      0.00000000 </i>
    <i name="Eion">      0.00000000 </i>
   </dipole>
   <energy>
    <i name="e_fr_energy">    -87.63377366 </i>
    <i name="e_wo_entrp">    -87.62640563 </i>
    <i name="e_0_energy">    -87.63193166 </i>
   </energy>
  </scstep>
  <scstep>
   <time name="dav">    7.04    7.04</time>
   <time name="total">    7.54    7.54</time>
   <dipole>
    <v name="dipole">      0.00000000       0.00000000       0.03038975 </v>
    <i name="Tr[quadrupol]">   -529.92695866 </i>
    <i name="Echarged">      0.00000000 </i>
    <i name="Edipol_quadrupol">      0.00000000 </i>
    <i name="Eion">      0.00000000 </i>
   </dipole>
   <energy>
    <i name="e_fr_energy">    -87.63375152 </i>
    <i name="e_wo_entrp">    -87.62640655 </i>
    <i name="e_0_energy">    -87.63191528 </i>
   </energy>
  </scstep>
  <scstep>
   <time name="dav">    5.49    5.50</time>
   <time name="total">    5.99    6.00</time>
   <dipole>
    <v name="dipole">      0.00000000       0.00000000       0.03049520 </v>
    <i name="Tr[quadrupol]">   -529.93792720 </i>
    <i name="Echarged">      0.00000000 </i>
    <i name="Edipol_quadrupol">      0.00000000 </i>
    <i name="Eion">      0.00000000 </i>
   </dipole>
   <energy>
    <i name="e_fr_energy">    -87.63374566 </i>
    <i name="e_wo_entrp">    -87.62640799 </i>
    <i name="e_0_energy">    -87.63191124 </i>
   </energy>
  </scstep>
  <scstep>
   <time name="dav">    5.29    5.30</time>
   <time name="total">    5.79    5.80</time>
   <dipole>
    <v name="dipole">      0.00000000       0.00000000       0.03067504 </v>
    <i name="Tr[quadrupol]">   -529.94340029 </i>
    <i name="Echarged">      0.00000000 </i>
    <i name="Edipol_quadrupol">      0.00000000 </i>
    <i name="Eion">      0.00000000 </i>
   </dipole>
   <energy>
    <i name="e_fr_energy">    -87.63375181 </i>
    <i name="e_wo_entrp">    -87.62640749 </i>
    <i name="e_0_energy">    -87.63191573 </i>
   </energy>
  </scstep>
  <scstep>
   <time name="dav">    5.36    5.37</time>
   <time name="total">    5.86    5.87</time>
   <dipole>
    <v name="dipole">      0.00000000       0.00000000       0.03084097 </v>
    <i name="Tr[quadrupol]">   -529.94882590 </i>
    <i name="Echarged">      0.00000000 </i>
    <i name="Edipol_quadrupol">      0.00000000 </i>
    <i name="Eion">      0.00000000 </i>
   </dipole>
   <energy>
    <i name="e_fr_energy">    -87.63375700 </i>
    <i name="e_wo_entrp">    -87.62640741 </i>
    <i name="e_0_energy">    -87.63191961 </i>
   </energy>
  </scstep>
  <scstep>
   <time name="dav">    5.44    5.45</time>
   <time name="total">    5.94    5.95</time>
   <dipole>
    <v name="dipole">      0.00000000       0.00000000       0.03102980 </v>
    <i name="Tr[quadrupol]">   -529.94925203 </i>
    <i name="Echarged">      0.00000000 </i>
    <i name="Edipol_quadrupol">      0.00000000 </i>
    <i name="Eion">      0.00000000 </i>
   </dipole>
   <energy>
    <i name="e_fr_energy">    -87.63377602 </i>
    <i name="e_wo_entrp">    -87.62641033 </i>
    <i name="e_0_energy">    -87.63193459 </i>
   </energy>
  </scstep>
  <scstep>
   <time name="dav">    5.51    5.51</time>
   <time name="total">    6.01    6.01</time>
   <dipole>
    <v name="dipole">      0.00000000       0.00000000       0.03113975 </v>
    <i name="Tr[quadrupol]">   -529.94952659 </i>
    <i name="Echarged">      0.00000000 </i>
    <i name="Edipol_quadrupol">      0.00000000 </i>
    <i name="Eion">      0.00000000 </i>
   </dipole>
   <energy>
    <i name="e_fr_energy">    -87.63378775 </i>
    <i name="e_wo_entrp">    -87.62641357 </i>
    <i name="e_0_energy">    -87.63194420 </i>
   </energy>
  </scstep>
  <scstep>
   <time name="dav">    5.37    5.38</time>
   <time name="total">    5.88    5.88</time>
   <dipole>
    <v name="dipole">      0.00000000       0.00000000       0.03129578 </v>
    <i name="Tr[quadrupol]">   -529.94977204 </i>
    <i name="Echarged">      0.00000000 </i>
    <i name="Edipol_quadrupol">      0.00000000 </i>
    <i name="Eion">      0.00000000 </i>
   </dipole>
   <energy>
    <i name="e_fr_energy">    -87.63380584 </i>
    <i name="e_wo_entrp">    -87.62641969 </i>
    <i name="e_0_energy">    -87.63195930 </i>
   </energy>
  </scstep>
  <scstep>
   <time name="dav">    5.30    5.30</time>
   <time name="total">    5.80    5.81</time>
   <dipole>
    <v name="dipole">      0.00000000       0.00000000       0.03115044 </v>
    <i name="Tr[quadrupol]">   -529.94963396 </i>
    <i name="Echarged">      0.00000000 </i>
    <i name="Edipol_quadrupol">      0.00000000 </i>
    <i name="Eion">      0.00000000 </i>
   </dipole>
   <energy>
    <i name="e_fr_energy">    -87.63379082 </i>
    <i name="e_wo_entrp">    -87.62641512 </i>
    <i name="e_0_energy">    -87.63194690 </i>
   </energy>
  </scstep>
  <scstep>
   <time name="dav">    5.38    5.38</time>
   <time name="total">    5.88    5.88</time>
   <dipole>
    <v name="dipole">      0.00000000       0.00000000       0.03083156 </v>
    <i name="Tr[quadrupol]">   -529.94962411 </i>
    <i name="Echarged">      0.00000000 </i>
    <i name="Edipol_quadrupol">      0.00000000 </i>
    <i name="Eion">      0.00000000 </i>
   </dipole>
   <energy>
    <i name="e_fr_energy">    -87.63376773 </i>
    <i name="e_wo_entrp">    -87.62641094 </i>
    <i name="e_0_energy">    -87.63192853 </i>
   </energy>
  </scstep>
  <scstep>
   <time name="dav">    7.60    7.61</time>
   <time name="total">    8.10    8.11</time>
   <dipole>
    <v name="dipole">      0.00000000       0.00000000       0.03014861 </v>
    <i name="Tr[quadrupol]">   -529.95064894 </i>
    <i name="Echarged">      0.00000000 </i>
    <i name="Edipol_quadrupol">      0.00000000 </i>
    <i name="Eion">      0.00000000 </i>
   </dipole>
   <energy>
    <i name="e_fr_energy">    -87.63373975 </i>
    <i name="e_wo_entrp">    -87.62641319 </i>
    <i name="e_0_energy">    -87.63190811 </i>
   </energy>
  </scstep>
  <scstep>
   <time name="dav">    7.09    7.10</time>
   <time name="total">    7.60    7.60</time>
   <dipole>
    <v name="dipole">      0.00000000       0.00000000       0.02929218 </v>
    <i name="Tr[quadrupol]">   -529.95224574 </i>
    <i name="Echarged">      0.00000000 </i>
    <i name="Edipol_quadrupol">      0.00000000 </i>
    <i name="Eion">      0.00000000 </i>
   </dipole>
   <energy>
    <i name="e_fr_energy">    -87.63372164 </i>
    <i name="e_wo_entrp">    -87.62643825 </i>
    <i name="e_0_energy">    -87.63190079 </i>
   </energy>
  </scstep>
  <scstep>
   <time name="dav">    7.65    7.66</time>
   <time name="total">    8.16    8.16</time>
   <dipole>
    <v name="dipole">      0.00000000       0.00000000       0.02886495 </v>
    <i name="Tr[quadrupol]">   -529.95213509 </i>
    <i name="Echarged">      0.00000000 </i>
    <i name="Edipol_quadrupol">      0.00000000 </i>
    <i name="Eion">      0.00000000 </i>
   </dipole>
   <energy>
    <i name="e_fr_energy">    -87.63372242 </i>
    <i name="e_wo_entrp">    -87.62645625 </i>
    <i name="e_0_energy">    -87.63190588 </i>
   </energy>
  </scstep>
  <scstep>
   <time name="dav">    5.49    5.50</time>
   <time name="total">    5.99    6.00</time>
   <dipole>
    <v name="dipole">      0.00000000       0.00000000       0.02842919 </v>
    <i name="Tr[quadrupol]">   -529.94656467 </i>
    <i name="Echarged">      0.00000000 </i>
    <i name="Edipol_quadrupol">      0.00000000 </i>
    <i name="Eion">      0.00000000 </i>
   </dipole>
   <energy>
    <i name="e_fr_energy">    -87.63373034 </i>
    <i name="e_wo_entrp">    -87.62649027 </i>
    <i name="e_0_energy">    -87.63192032 </i>
   </energy>
  </scstep>
  <scstep>
   <time name="dav">    5.95    5.96</time>
   <time name="total">    6.45    6.46</time>
   <dipole>
    <v name="dipole">      0.00000000       0.00000000       0.02840917 </v>
    <i name="Tr[quadrupol]">   -529.94651794 </i>
    <i name="Echarged">      0.00000000 </i>
    <i name="Edipol_quadrupol">      0.00000000 </i>
    <i name="Eion">      0.00000000 </i>
   </dipole>
   <energy>
    <i name="e_fr_energy">    -87.63372887 </i>
    <i name="e_wo_entrp">    -87.62648435 </i>
    <i name="e_0_energy">    -87.63191774 </i>
   </energy>
  </scstep>
  <scstep>
   <time name="dav">    5.29    5.30</time>
   <time name="total">    5.80    5.80</time>
   <dipole>
    <v name="dipole">      0.00000000       0.00000000       0.02843073 </v>
    <i name="Tr[quadrupol]">   -529.94661968 </i>
    <i name="Echarged">      0.00000000 </i>
    <i name="Edipol_quadrupol">      0.00000000 </i>
    <i name="Eion">      0.00000000 </i>
   </dipole>
   <energy>
    <i name="e_fr_energy">    -87.63372750 </i>
    <i name="e_wo_entrp">    -87.62647935 </i>
    <i name="e_0_energy">    -87.63191546 </i>
   </energy>
  </scstep>
  <scstep>
   <time name="dav">    8.27    8.28</time>
   <time name="total">    9.02    9.03</time>
   <dipole>
    <v name="dipole">      0.00000000       0.00000000       0.02849001 </v>
    <i name="Tr[quadrupol]">   -529.94714129 </i>
    <i name="Echarged">      0.00000000 </i>
    <i name="Edipol_quadrupol">      0.00000000 </i>
    <i name="Eion">      0.00000000 </i>
   </dipole>
   <energy>
    <i name="e_fr_energy">    -87.63372607 </i>
    <i name="e_wo_entrp">    -87.62647302 </i>
    <i name="e_0_energy">    -87.63191281 </i>
   </energy>
  </scstep>
  <scstep>
   <time name="dav">    5.49    5.50</time>
   <time name="total">    5.99    6.00</time>
   <dipole>
    <v name="dipole">      0.00000000       0.00000000       0.02862176 </v>
    <i name="Tr[quadrupol]">   -529.94802417 </i>
    <i name="Echarged">      0.00000000 </i>
    <i name="Edipol_quadrupol">      0.00000000 </i>
    <i name="Eion">      0.00000000 </i>
   </dipole>
   <energy>
    <i name="e_fr_energy">    -87.63372340 </i>
    <i name="e_wo_entrp">    -87.62645569 </i>
    <i name="e_0_energy">    -87.63190648 </i>
   </energy>
  </scstep>
  <scstep>
   <time name="dav">    5.41    5.42</time>
   <time name="total">    5.45    5.46</time>
   <dipole>
    <v name="dipole">      0.00000000       0.00000000       0.02861269 </v>
    <i name="Tr[quadrupol]">   -529.94303262 </i>
    <i name="Echarged">      0.00000000 </i>
    <i name="Edipol_quadrupol">      0.00000000 </i>
    <i name="Eion">      0.00000000 </i>
   </dipole>
   <energy>
    <i name="alphaZ">    487.78961921 </i>
    <i name="ewald">  29234.84184244 </i>
    <i name="hartreedc"> -38981.57499490 </i>
    <i name="XCdc">     29.53331164 </i>
    <i name="pawpsdc">   7447.39278673 </i>
    <i name="pawaedc">  -7097.41026673 </i>
    <i name="eentropy">     -0.00727080 </i>
    <i name="bandstr">   -496.94364160 </i>
    <i name="atom">   9288.74489069 </i>
    <i name="e_fr_energy">    -87.63372333 </i>
    <i name="e_wo_entrp">    -87.62645253 </i>
    <i name="e_0_energy">    -87.63190563 </i>
   </energy>
  </scstep>
  <structure>
   <crystal>
    <varray name="basis" >
     <v>       4.88428255       0.00000000       0.00000000 </v>
     <v>       2.44214127       4.22991277       0.00000000 </v>
     <v>       0.00000000       0.00000000      22.10741862 </v>
    </varray>
    <i name="volume">    456.74123834 </i>
    <varray name="rec_basis" >
     <v>       0.20473836      -0.11820575       0.00000000 </v>
     <v>      -0.00000000       0.23641149       0.00000000 </v>
     <v>       0.00000000       0.00000000       0.04523368 </v>
    </varray>
   </crystal>
   <varray name="positions" >
    <v>       0.30286415       0.49410690       0.00209390 </v>
    <v>       0.63619748       0.82744023       0.00209390 </v>
    <v>       0.96953081       0.16077357       0.00209390 </v>
    <v>       0.63619748       0.49410690       0.10624323 </v>
    <v>       0.96953081       0.82744023       0.10624323 </v>
    <v>       0.30286415       0.16077357       0.10624323 </v>
    <v>       0.30286415       0.49410690       0.30505139 </v>
    <v>       0.63619748       0.82744023       0.30505139 </v>
    <v>       0.96953081       0.16077357       0.30505139 </v>
    <v>       0.96953081       0.49410690       0.20429559 </v>
    <v>       0.30286415       0.82744023       0.20429559 </v>
    <v>       0.63619748       0.16077357       0.20429559 </v>
    <v>       0.76871130       0.99259116       0.43532491 </v>
    <v>       0.63852722       0.81279312       0.40965579 </v>
    <v>       0.99225302       0.83012516       0.44138925 </v>
   </varray>
  </structure>
  <varray name="forces" >
   <v>      -0.00404098      -0.00143751      -0.09709853 </v>
   <v>      -0.00286280       0.00849696      -0.18723540 </v>
   <v>       0.00003460      -0.00419283      -0.12083770 </v>
   <v>       0.02487633       0.04064226       0.12130141 </v>
   <v>      -0.05477610      -0.01000714       0.12272386 </v>
   <v>       0.01437649      -0.03514983       0.14088245 </v>
   <v>       0.00468546       0.02117362      -0.31010824 </v>
   <v>       0.07944595      -0.08863712       1.58442467 </v>
   <v>      -0.05365391      -0.02669273      -0.13250179 </v>
   <v>      -0.01045264       0.05976411       0.10207134 </v>
   <v>       0.04091127       0.02779310       0.07314736 </v>
   <v>      -0.03590873      -0.05001385       0.02635317 </v>
   <v>      -0.42657520      -0.36290831      -0.32544334 </v>
   <v>       0.43987385       0.36883574      -0.98256612 </v>
   <v>      -0.01593359       0.05233352      -0.01511314 </v>
  </varray>
  <varray name="stress" >
   <v>     -47.54094743      -1.21951225      -0.28382346 </v>
   <v>      -1.21951226     -45.85111647      -0.31841940 </v>
   <v>      -0.28382346      -0.31841939     -11.32708785 </v>
  </varray>
  <energy>
   <i name="e_fr_energy">    -87.63372333 </i>
   <i name="e_wo_entrp">    -87.63190563 </i>
   <i name="e_0_energy">     -0.00727080 </i>
  </energy>
  <time name="totalsc">  444.88  445.59</time>
 </calculation>
 <calculation>
  <scstep>
   <time name="dav">    7.13    7.14</time>
   <time name="total">    7.63    7.64</time>
   <dipole>
    <v name="dipole">      0.00000000       0.00000000       0.02855101 </v>
    <i name="Tr[quadrupol]">   -529.82677331 </i>
    <i name="Echarged">      0.00000000 </i>
    <i name="Edipol_quadrupol">      0.00000000 </i>
    <i name="Eion">      0.00000000 </i>
   </dipole>
   <energy>
    <i name="alphaZ">    487.78588862 </i>
    <i name="ewald">  29235.29446903 </i>
    <i name="hartreedc"> -38981.16999160 </i>
    <i name="XCdc">     29.57592898 </i>
    <i name="pawpsdc">   7447.39102752 </i>
    <i name="pawaedc">  -7097.40846941 </i>
    <i name="eentropy">     -0.00839247 </i>
    <i name="bandstr">   -497.89830554 </i>
    <i name="atom">   9288.74489069 </i>
    <i name="e_fr_energy">    -87.69295418 </i>
    <i name="e_wo_entrp">    -87.68456171 </i>
    <i name="e_0_energy">    -87.69085606 </i>
   </energy>
  </scstep>
  <scstep>
   <time name="dav">    9.26    9.27</time>
   <time name="total">    9.77    9.77</time>
   <dipole>
    <v name="dipole">      0.00000000       0.00000000       0.00594126 </v>
    <i name="Tr[quadrupol]">   -529.88062457 </i>
    <i name="Echarged">      0.00000000 </i>
    <i name="Edipol_quadrupol">      0.00000000 </i>
    <i name="Eion">      0.00000000 </i>
   </dipole>
   <energy>
    <i name="e_fr_energy">    -87.73495475 </i>
    <i name="e_wo_entrp">    -87.72894482 </i>
    <i name="e_0_energy">    -87.73345227 </i>
   </energy>
  </scstep>
  <scstep>
   <time name="dav">   10.07   10.08</time>
   <time name="total">   10.58   10.59</time>
   <dipole>
    <v name="dipole">      0.00000000       0.00000000       0.03314598 </v>
    <i name="Tr[quadrupol]">   -529.93182433 </i>
    <i name="Echarged">      0.00000000 </i>
    <i name="Edipol_quadrupol">      0.00000000 </i>
    <i name="Eion">      0.00000000 </i>
   </dipole>
   <energy>
    <i name="e_fr_energy">    -87.72263783 </i>
    <i name="e_wo_entrp">    -87.71472808 </i>
    <i name="e_0_energy">    -87.72066039 </i>
   </energy>
  </scstep>
  <scstep>
   <time name="dav">   10.36   10.37</time>
   <time name="total">   10.87   10.88</time>
   <dipole>
    <v name="dipole">      0.00000000       0.00000000       0.02500356 </v>
    <i name="Tr[quadrupol]">   -529.83481620 </i>
    <i name="Echarged">      0.00000000 </i>
    <i name="Edipol_quadrupol">      0.00000000 </i>
    <i name="Eion">      0.00000000 </i>
   </dipole>
   <energy>
    <i name="e_fr_energy">    -87.71334158 </i>
    <i name="e_wo_entrp">    -87.70481933 </i>
    <i name="e_0_energy">    -87.71121101 </i>
   </energy>
  </scstep>
  <scstep>
   <time name="dav">    9.90    9.90</time>
   <time name="total">   10.40   10.41</time>
   <dipole>
    <v name="dipole">      0.00000000       0.00000000       0.02102053 </v>
    <i name="Tr[quadrupol]">   -529.88900033 </i>
    <i name="Echarged">      0.00000000 </i>
    <i name="Edipol_quadrupol">      0.00000000 </i>
    <i name="Eion">      0.00000000 </i>
   </dipole>
   <energy>
    <i name="e_fr_energy">    -87.71073221 </i>
    <i name="e_wo_entrp">    -87.70325109 </i>
    <i name="e_0_energy">    -87.70886193 </i>
   </energy>
  </scstep>
  <scstep>
   <time name="dav">   10.50   10.51</time>
   <time name="total">   11.01   11.02</time>
   <dipole>
    <v name="dipole">      0.00000000       0.00000000       0.01848127 </v>
    <i name="Tr[quadrupol]">   -529.90788705 </i>
    <i name="Echarged">      0.00000000 </i>
    <i name="Edipol_quadrupol">      0.00000000 </i>
    <i name="Eion">      0.00000000 </i>
   </dipole>
   <energy>
    <i name="e_fr_energy">    -87.71067900 </i>
    <i name="e_wo_entrp">    -87.70321616 </i>
    <i name="e_0_energy">    -87.70881329 </i>
   </energy>
  </scstep>
  <scstep>
   <time name="dav">   10.49   10.50</time>
   <time name="total">   10.99   11.00</time>
   <dipole>
    <v name="dipole">      0.00000000       0.00000000       0.02069822 </v>
    <i name="Tr[quadrupol]">   -529.91148426 </i>
    <i name="Echarged">      0.00000000 </i>
    <i name="Edipol_quadrupol">      0.00000000 </i>
    <i name="Eion">      0.00000000 </i>
   </dipole>
   <energy>
    <i name="e_fr_energy">    -87.70993256 </i>
    <i name="e_wo_entrp">    -87.70212692 </i>
    <i name="e_0_energy">    -87.70798115 </i>
   </energy>
  </scstep>
  <scstep>
   <time name="dav">    9.20    9.21</time>
   <time name="total">    9.71    9.72</time>
   <dipole>
    <v name="dipole">      0.00000000       0.00000000       0.02008652 </v>
    <i name="Tr[quadrupol]">   -529.91477114 </i>
    <i name="Echarged">      0.00000000 </i>
    <i name="Edipol_quadrupol">      0.00000000 </i>
    <i name="Eion">      0.00000000 </i>
   </dipole>
   <energy>
    <i name="e_fr_energy">    -87.71006063 </i>
    <i name="e_wo_entrp">    -87.70229347 </i>
    <i name="e_0_energy">    -87.70811884 </i>
   </energy>
  </scstep>
  <scstep>
   <time name="dav">    9.58    9.59</time>
   <time name="total">   10.09   10.09</time>
   <dipole>
    <v name="dipole">      0.00000000       0.00000000       0.01979196 </v>
    <i name="Tr[quadrupol]">   -529.91607355 </i>
    <i name="Echarged">      0.00000000 </i>
    <i name="Edipol_quadrupol">      0.00000000 </i>
    <i name="Eion">      0.00000000 </i>
   </dipole>
   <energy>
    <i name="e_fr_energy">    -87.70987681 </i>
    <i name="e_wo_entrp">    -87.70217418 </i>
    <i name="e_0_energy">    -87.70795115 </i>
   </energy>
  </scstep>
  <scstep>
   <time name="dav">    9.44    9.44</time>
   <time name="total">    9.95    9.95</time>
   <dipole>
    <v name="dipole">      0.00000000       0.00000000       0.01974903 </v>
    <i name="Tr[quadrupol]">   -529.91551838 </i>
    <i name="Echarged">      0.00000000 </i>
    <i name="Edipol_quadrupol">      0.00000000 </i>
    <i name="Eion">      0.00000000 </i>
   </dipole>
   <energy>
    <i name="e_fr_energy">    -87.70986963 </i>
    <i name="e_wo_entrp">    -87.70215445 </i>
    <i name="e_0_energy">    -87.70794084 </i>
   </energy>
  </scstep>
  <scstep>
   <time name="dav">    9.22    9.23</time>
   <time name="total">    9.72    9.74</time>
   <dipole>
    <v name="dipole">      0.00000000       0.00000000       0.01944512 </v>
    <i name="Tr[quadrupol]">   -529.91678578 </i>
    <i name="Echarged">      0.00000000 </i>
    <i name="Edipol_quadrupol">      0.00000000 </i>
    <i name="Eion">      0.00000000 </i>
   </dipole>
   <energy>
    <i name="e_fr_energy">    -87.70988236 </i>
    <i name="e_wo_entrp">    -87.70216792 </i>
    <i name="e_0_energy">    -87.70795375 </i>
   </energy>
  </scstep>
  <scstep>
   <time name="dav">    8.24    8.25</time>
   <time name="total">    8.75    8.75</time>
   <dipole>
    <v name="dipole">      0.00000000       0.00000000       0.01926229 </v>
    <i name="Tr[quadrupol]">   -529.91656496 </i>
    <i name="Echarged">      0.00000000 </i>
    <i name="Edipol_quadrupol">      0.00000000 </i>
    <i name="Eion">      0.00000000 </i>
   </dipole>
   <energy>
    <i name="e_fr_energy">    -87.70988762 </i>
    <i name="e_wo_entrp">    -87.70221219 </i>
    <i name="e_0_energy">    -87.70796877 </i>
   </energy>
  </scstep>
  <scstep>
   <time name="dav">    5.83    5.83</time>
   <time name="total">    6.33    6.34</time>
   <dipole>
    <v name="dipole">      0.00000000       0.00000000       0.01916599 </v>
    <i name="Tr[quadrupol]">   -529.91720800 </i>
    <i name="Echarged">      0.00000000 </i>
    <i name="Edipol_quadrupol">      0.00000000 </i>
    <i name="Eion">      0.00000000 </i>
   </dipole>
   <energy>
    <i name="e_fr_energy">    -87.70989100 </i>
    <i name="e_wo_entrp">    -87.70220103 </i>
    <i name="e_0_energy">    -87.70796851 </i>
   </energy>
  </scstep>
  <scstep>
   <time name="dav">    5.76    5.76</time>
   <time name="total">    6.26    6.27</time>
   <dipole>
    <v name="dipole">      0.00000000       0.00000000       0.01907916 </v>
    <i name="Tr[quadrupol]">   -529.91796519 </i>
    <i name="Echarged">      0.00000000 </i>
    <i name="Edipol_quadrupol">      0.00000000 </i>
    <i name="Eion">      0.00000000 </i>
   </dipole>
   <energy>
    <i name="e_fr_energy">    -87.70989439 </i>
    <i name="e_wo_entrp">    -87.70219333 </i>
    <i name="e_0_energy">    -87.70796912 </i>
   </energy>
  </scstep>
  <scstep>
   <time name="dav">    5.43    5.43</time>
   <time name="total">    5.94    5.94</time>
   <dipole>
    <v name="dipole">      0.00000000       0.00000000       0.01899384 </v>
    <i name="Tr[quadrupol]">   -529.91828041 </i>
    <i name="Echarged">      0.00000000 </i>
    <i name="Edipol_quadrupol">      0.00000000 </i>
    <i name="Eion">      0.00000000 </i>
   </dipole>
   <energy>
    <i name="e_fr_energy">    -87.70989818 </i>
    <i name="e_wo_entrp">    -87.70220072 </i>
    <i name="e_0_energy">    -87.70797381 </i>
   </energy>
  </scstep>
  <scstep>
   <time name="dav">    6.22    6.23</time>
   <time name="total">    6.73    6.80</time>
   <dipole>
    <v name="dipole">      0.00000000       0.00000000       0.01883488 </v>
    <i name="Tr[quadrupol]">   -529.91922614 </i>
    <i name="Echarged">      0.00000000 </i>
    <i name="Edipol_quadrupol">      0.00000000 </i>
    <i name="Eion">      0.00000000 </i>
   </dipole>
   <energy>
    <i name="e_fr_energy">    -87.70990544 </i>
    <i name="e_wo_entrp">    -87.70220408 </i>
    <i name="e_0_energy">    -87.70798010 </i>
   </energy>
  </scstep>
  <scstep>
   <time name="dav">    5.93    5.93</time>
   <time name="total">    6.44    6.44</time>
   <dipole>
    <v name="dipole">      0.00000000       0.00000000       0.01864120 </v>
    <i name="Tr[quadrupol]">   -529.92002288 </i>
    <i name="Echarged">      0.00000000 </i>
    <i name="Edipol_quadrupol">      0.00000000 </i>
    <i name="Eion">      0.00000000 </i>
   </dipole>
   <energy>
    <i name="e_fr_energy">    -87.70991155 </i>
    <i name="e_wo_entrp">    -87.70221113 </i>
    <i name="e_0_energy">    -87.70798645 </i>
   </energy>
  </scstep>
  <scstep>
   <time name="dav">    5.79    5.79</time>
   <time name="total">    6.29    6.30</time>
   <dipole>
    <v name="dipole">      0.00000000       0.00000000       0.01848010 </v>
    <i name="Tr[quadrupol]">   -529.91739012 </i>
    <i name="Echarged">      0.00000000 </i>
    <i name="Edipol_quadrupol">      0.00000000 </i>
    <i name="Eion">      0.00000000 </i>
   </dipole>
   <energy>
    <i name="e_fr_energy">    -87.70991531 </i>
    <i name="e_wo_entrp">    -87.70221263 </i>
    <i name="e_0_energy">    -87.70798964 </i>
   </energy>
  </scstep>
  <scstep>
   <time name="dav">    5.84    5.85</time>
   <time name="total">    6.35    6.35</time>
   <dipole>
    <v name="dipole">      0.00000000       0.00000000       0.01822641 </v>
    <i name="Tr[quadrupol]">   -529.91509828 </i>
    <i name="Echarged">      0.00000000 </i>
    <i name="Edipol_quadrupol">      0.00000000 </i>
    <i name="Eion">      0.00000000 </i>
   </dipole>
   <energy>
    <i name="e_fr_energy">    -87.70991794 </i>
    <i name="e_wo_entrp">    -87.70221603 </i>
    <i name="e_0_energy">    -87.70799246 </i>
   </energy>
  </scstep>
  <scstep>
   <time name="dav">    5.47    5.48</time>
   <time name="total">    5.51    5.51</time>
   <dipole>
    <v name="dipole">      0.00000000       0.00000000       0.01809018 </v>
    <i name="Tr[quadrupol]">   -529.91576514 </i>
    <i name="Echarged">      0.00000000 </i>
    <i name="Edipol_quadrupol">      0.00000000 </i>
    <i name="Eion">      0.00000000 </i>
   </dipole>
   <energy>
    <i name="alphaZ">    487.43815569 </i>
    <i name="ewald">  29235.29446903 </i>
    <i name="hartreedc"> -38984.23316458 </i>
    <i name="XCdc">     29.61740967 </i>
    <i name="pawpsdc">   7449.38474636 </i>
    <i name="pawaedc">  -7099.39772349 </i>
    <i name="eentropy">     -0.00770290 </i>
    <i name="bandstr">   -494.55099898 </i>
    <i name="atom">   9288.74489069 </i>
    <i name="e_fr_energy">    -87.70991850 </i>
    <i name="e_wo_entrp">    -87.70221560 </i>
    <i name="e_0_energy">    -87.70799277 </i>
   </energy>
  </scstep>
  <structure>
   <crystal>
    <varray name="basis" >
     <v>       4.88428255       0.00000000       0.00000000 </v>
     <v>       2.44214127       4.22991277       0.00000000 </v>
     <v>       0.00000000       0.00000000      22.10741862 </v>
    </varray>
    <i name="volume">    456.74123834 </i>
    <varray name="rec_basis" >
     <v>       0.20473836      -0.11820575       0.00000000 </v>
     <v>      -0.00000000       0.23641149       0.00000000 </v>
     <v>       0.00000000       0.00000000       0.04523368 </v>
    </varray>
   </crystal>
   <varray name="positions" >
    <v>       0.30286415       0.49410690       0.00209390 </v>
    <v>       0.63619748       0.82744023       0.00209390 </v>
    <v>       0.96953081       0.16077357       0.00209390 </v>
    <v>       0.63619748       0.49410690       0.10624323 </v>
    <v>       0.96953081       0.82744023       0.10624323 </v>
    <v>       0.30286415       0.16077357       0.10624323 </v>
    <v>       0.30283436       0.49420349       0.30478070 </v>
    <v>       0.63671354       0.82703587       0.30643440 </v>
    <v>       0.96937972       0.16065179       0.30493573 </v>
    <v>       0.96935319       0.49437955       0.20438468 </v>
    <v>       0.30296238       0.82756703       0.20435943 </v>
    <v>       0.63616969       0.16054540       0.20431859 </v>
    <v>       0.76785377       0.99093555       0.43504084 </v>
    <v>       0.63942378       0.81447577       0.40879813 </v>
    <v>       0.99207069       0.83036391       0.44137606 </v>
   </varray>
  </structure>
  <varray name="forces" >
   <v>      -0.00463696      -0.00143480      -0.09868922 </v>
   <v>      -0.00397978       0.00722430      -0.18334548 </v>
   <v>       0.00033700      -0.00441905      -0.12200755 </v>
   <v>       0.02628859       0.04474144       0.12680712 </v>
   <v>      -0.05991223      -0.01105968       0.12179662 </v>
   <v>       0.01371147      -0.03660127       0.14580337 </v>
   <v>       0.00974698       0.01523349      -0.26228446 </v>
   <v>       0.08799209      -0.06604308       1.32112330 </v>
   <v>      -0.04069970      -0.02534009      -0.12356863 </v>
   <v>      -0.03885991       0.09004358       0.13067361 </v>
   <v>       0.09092888       0.02776323       0.11187640 </v>
   <v>      -0.05121658      -0.08084481       0.05989249 </v>
   <v>      -0.10125702      -0.12417400      -0.16409213 </v>
   <v>       0.12333992       0.12066045      -1.02176547 </v>
   <v>      -0.05178274       0.04425030      -0.04221995 </v>
  </varray>
  <varray name="stress" >
   <v>     -46.84381965      -0.29756278       0.12384942 </v>
   <v>      -0.29756274     -45.55036586      -0.00227155 </v>
   <v>       0.12384941      -0.00227153     -11.01159420 </v>
  </varray>
  <energy>
   <i name="e_fr_energy">    -87.70991850 </i>
   <i name="e_wo_entrp">    -87.70799277 </i>
   <i name="e_0_energy">     -0.00770290 </i>
  </energy>
  <time name="totalsc">  174.07  174.27</time>
 </calculation>
 <calculation>
  <scstep>
   <time name="dav">    7.18    7.28</time>
   <time name="total">    7.68    7.79</time>
   <dipole>
    <v name="dipole">      0.00000000       0.00000000       0.01798351 </v>
    <i name="Tr[quadrupol]">   -529.57855180 </i>
    <i name="Echarged">      0.00000000 </i>
    <i name="Edipol_quadrupol">      0.00000000 </i>
    <i name="Eion">      0.00000000 </i>
   </dipole>
   <energy>
    <i name="alphaZ">    487.34569584 </i>
    <i name="ewald">  29237.60052680 </i>
    <i name="hartreedc"> -38983.44249702 </i>
    <i name="XCdc">     29.78090818 </i>
    <i name="pawpsdc">   7449.38573349 </i>
    <i name="pawaedc">  -7099.39868457 </i>
    <i name="eentropy">     -0.01048797 </i>
    <i name="bandstr">   -497.61030194 </i>
    <i name="atom">   9288.74489069 </i>
    <i name="e_fr_energy">    -87.60421649 </i>
    <i name="e_wo_entrp">    -87.59372852 </i>
    <i name="e_0_energy">    -87.60159450 </i>
   </energy>
  </scstep>
  <scstep>
   <time name="dav">    9.44    9.45</time>
   <time name="total">    9.94    9.95</time>
   <dipole>
    <v name="dipole">      0.00000000       0.00000000      -0.07129445 </v>
    <i name="Tr[quadrupol]">   -529.71376371 </i>
    <i name="Echarged">      0.00000000 </i>
    <i name="Edipol_quadrupol">      0.00000000 </i>
    <i name="Eion">      0.00000000 </i>
   </dipole>
   <energy>
    <i name="e_fr_energy">    -88.26535009 </i>
    <i name="e_wo_entrp">    -88.25948422 </i>
    <i name="e_0_energy">    -88.26388362 </i>
   </energy>
  </scstep>
  <scstep>
   <time name="dav">   10.07   10.08</time>
   <time name="total">   10.57   10.58</time>
   <dipole>
    <v name="dipole">      0.00000000       0.00000000       0.03407005 </v>
    <i name="Tr[quadrupol]">   -529.88727562 </i>
    <i name="Echarged">      0.00000000 </i>
    <i name="Edipol_quadrupol">      0.00000000 </i>
    <i name="Eion">      0.00000000 </i>
   </dipole>
   <energy>
    <i name="e_fr_energy">    -87.98657543 </i>
    <i name="e_wo_entrp">    -87.97467125 </i>
    <i name="e_0_energy">    -87.98359939 </i>
   </energy>
  </scstep>
  <scstep>
   <time name="dav">   10.45   10.45</time>
[...]
       <r>   -5.4886    1.0000 </r>
       <r>   -5.2562    1.0000 </r>
       <r>   -5.2323    1.0000 </r>
       <r>   -5.1000    1.0000 </r>
       <r>   -4.8984    1.0000 </r>
       <r>   -4.8479    1.0000 </r>
       <r>   -4.6361    1.0000 </r>
       <r>   -4.5080    1.0000 </r>
       <r>   -4.4521    1.0000 </r>
       <r>   -4.2698    1.0000 </r>
       <r>   -4.2478    1.0000 </r>
       <r>   -4.0701    1.0000 </r>
       <r>   -3.9961    1.0000 </r>
       <r>   -3.8505    1.0000 </r>
       <r>   -3.6287    1.0000 </r>
       <r>   -3.5847    1.0000 </r>
       <r>   -3.4604    1.0000 </r>
       <r>   -3.3281    1.0000 </r>
       <r>   -3.2563    1.0000 </r>
       <r>   -3.1804    1.0000 </r>
       <r>   -3.1495    1.0000 </r>
       <r>   -3.1301    1.0000 </r>
       <r>   -3.0288    1.0000 </r>
       <r>   -2.9961    1.0000 </r>
       <r>   -2.8870    1.0000 </r>
       <r>   -2.6534    1.0000 </r>
       <r>   -2.5655    1.0000 </r>
       <r>   -2.5484    1.0000 </r>
       <r>   -2.4114    1.0000 </r>
       <r>   -2.3356    1.0000 </r>
       <r>   -2.1784    1.0000 </r>
       <r>   -1.9887    1.0000 </r>
       <r>   -1.9623    1.0000 </r>
       <r>   -1.7934    1.0000 </r>
       <r>   -1.7188    1.0000 </r>
       <r>   -1.5783    1.0000 </r>
       <r>   -1.4766    1.0000 </r>
       <r>   -1.4100    1.0000 </r>
       <r>   -1.3289    1.0000 </r>
       <r>   -1.0769    1.0000 </r>
       <r>   -1.0165    1.0000 </r>
       <r>   -0.9369    1.0000 </r>
       <r>   -0.8812    1.0000 </r>
       <r>   -0.7790    1.0000 </r>
       <r>   -0.6067    0.9998 </r>
       <r>   -0.5726    0.9995 </r>
       <r>   -0.5331    0.9989 </r>
       <r>   -0.4990    0.9980 </r>
       <r>   -0.4125    0.9952 </r>
       <r>   -0.2501    1.0317 </r>
       <r>   -0.1888    1.0516 </r>
       <r>   -0.1534    1.0381 </r>
       <r>   -0.0621    0.8163 </r>
       <r>    0.0067    0.4784 </r>
       <r>    0.1013    0.0652 </r>
       <r>    0.1350   -0.0099 </r>
       <r>    0.1914   -0.0515 </r>
       <r>    0.3145   -0.0069 </r>
       <r>    0.4135    0.0049 </r>
       <r>    0.4604    0.0036 </r>
       <r>    1.0909    0.0000 </r>
       <r>    1.3702    0.0000 </r>
       <r>    1.5130    0.0000 </r>
       <r>    2.3203    0.0000 </r>
       <r>    3.0235    0.0000 </r>
       <r>    3.7072    0.0000 </r>
      </set>
     </set>
    </set>
   </array>
  </eigenvalues>
  <separator name="orbital magnetization" >
   <v name="MAGDIPOLOUT">      0.00000000      0.00000000      0.00000000</v>
  </separator>
  <dos>
   <i name="efermi">      0.00264824 </i>
   <total>
    <array>
     <dimension dim="1">gridpoints</dimension>
     <dimension dim="2">spin</dimension>
     <field>energy</field>
     <field>total</field>
     <field>integrated</field>
     <set>
      <set comment="spin 1">
       <r>   -24.9360     0.0000     0.0000 </r>
       <r>   -24.8291     0.0000     0.0000 </r>
       <r>   -24.7223     0.0000     0.0000 </r>
       <r>   -24.6154     0.0000     0.0000 </r>
       <r>   -24.5085     0.0000     0.0000 </r>
       <r>   -24.4016     0.0000     0.0000 </r>
       <r>   -24.2947     0.0000     0.0000 </r>
       <r>   -24.1879     0.0000     0.0000 </r>
       <r>   -24.0810     0.0000     0.0000 </r>
       <r>   -23.9741     0.0000     0.0000 </r>
       <r>   -23.8672     0.0000     0.0000 </r>
       <r>   -23.7603     0.0000     0.0000 </r>
       <r>   -23.6534     0.0002     0.0000 </r>
       <r>   -23.5466     0.0034     0.0004 </r>
       <r>   -23.4397     0.0284     0.0034 </r>
       <r>   -23.3328     0.0601     0.0098 </r>
       <r>   -23.2259    -0.3061    -0.0229 </r>
       <r>   -23.1190    -0.7489    -0.1029 </r>
       <r>   -23.0121     2.9908     0.2167 </r>
       <r>   -22.9053     9.4776     1.2297 </r>
       <r>   -22.7984     7.2743     2.0072 </r>
       <r>   -22.6915     0.6750     2.0793 </r>
       <r>   -22.5846    -0.7499     1.9992 </r>
       <r>   -22.4777    -0.0652     1.9922 </r>
       <r>   -22.3709     0.0584     1.9985 </r>
       <r>   -22.2640     0.0133     1.9999 </r>
       <r>   -22.1571     0.0011     2.0000 </r>
       <r>   -22.0502     0.0000     2.0000 </r>
       <r>   -21.9433     0.0000     2.0000 </r>
       <r>   -21.8364     0.0000     2.0000 </r>
       <r>   -21.7296     0.0000     2.0000 </r>
       <r>   -21.6227     0.0000     2.0000 </r>
       <r>   -21.5158     0.0000     2.0000 </r>
       <r>   -21.4089     0.0000     2.0000 </r>
       <r>   -21.3020     0.0000     2.0000 </r>
       <r>   -21.1952     0.0000     2.0000 </r>
       <r>   -21.0883     0.0000     2.0000 </r>
       <r>   -20.9814     0.0000     2.0000 </r>
       <r>   -20.8745     0.0000     2.0000 </r>
       <r>   -20.7676     0.0000     2.0000 </r>
       <r>   -20.6607     0.0000     2.0000 </r>
       <r>   -20.5539     0.0000     2.0000 </r>
       <r>   -20.4470     0.0000     2.0000 </r>
       <r>   -20.3401     0.0000     2.0000 </r>
       <r>   -20.2332     0.0000     2.0000 </r>
       <r>   -20.1263     0.0000     2.0000 </r>
       <r>   -20.0194     0.0000     2.0000 </r>
       <r>   -19.9126     0.0000     2.0000 </r>
       <r>   -19.8057     0.0000     2.0000 </r>
       <r>   -19.6988     0.0000     2.0000 </r>
       <r>   -19.5919     0.0000     2.0000 </r>
       <r>   -19.4850     0.0000     2.0000 </r>
       <r>   -19.3782     0.0000     2.0000 </r>
       <r>   -19.2713     0.0000     2.0000 </r>
       <r>   -19.1644     0.0000     2.0000 </r>
       <r>   -19.0575     0.0000     2.0000 </r>
       <r>   -18.9506     0.0000     2.0000 </r>
       <r>   -18.8437     0.0000     2.0000 </r>
       <r>   -18.7369     0.0000     2.0000 </r>
       <r>   -18.6300     0.0000     2.0000 </r>
       <r>   -18.5231     0.0000     2.0000 </r>
       <r>   -18.4162     0.0000     2.0000 </r>
       <r>   -18.3093     0.0000     2.0000 </r>
       <r>   -18.2025     0.0000     2.0000 </r>
       <r>   -18.0956     0.0000     2.0000 </r>
       <r>   -17.9887     0.0000     2.0000 </r>
       <r>   -17.8818     0.0000     2.0000 </r>
       <r>   -17.7749     0.0000     2.0000 </r>
       <r>   -17.6680     0.0000     2.0000 </r>
       <r>   -17.5612     0.0009     2.0001 </r>
       <r>   -17.4543     0.0112     2.0013 </r>
       <r>   -17.3474     0.0524     2.0069 </r>
       <r>   -17.2405    -0.0377     2.0029 </r>
       <r>   -17.1336    -0.6645     1.9319 </r>
       <r>   -17.0267     0.3626     1.9706 </r>
       <r>   -16.9199     6.4688     2.6620 </r>
       <r>   -16.8130     9.5957     3.6876 </r>
       <r>   -16.7061     3.7890     4.0926 </r>
       <r>   -16.5992    -0.5561     4.0332 </r>
       <r>   -16.4923    -0.3939     3.9911 </r>
       <r>   -16.3855     0.0445     3.9958 </r>
       <r>   -16.2786     0.0341     3.9995 </r>
       <r>   -16.1717     0.0048     4.0000 </r>
       <r>   -16.0648     0.0003     4.0000 </r>
       <r>   -15.9579     0.0000     4.0000 </r>
       <r>   -15.8510     0.0000     4.0000 </r>
       <r>   -15.7442     0.0000     4.0000 </r>
       <r>   -15.6373     0.0000     4.0000 </r>
       <r>   -15.5304     0.0000     4.0000 </r>
       <r>   -15.4235     0.0000     4.0000 </r>
       <r>   -15.3166     0.0000     4.0000 </r>
       <r>   -15.2097     0.0000     4.0000 </r>
       <r>   -15.1029     0.0000     4.0000 </r>
       <r>   -14.9960     0.0000     4.0000 </r>
       <r>   -14.8891     0.0000     4.0000 </r>
       <r>   -14.7822     0.0000     4.0000 </r>
       <r>   -14.6753     0.0000     4.0000 </r>
       <r>   -14.5685     0.0000     4.0000 </r>
       <r>   -14.4616     0.0000     4.0000 </r>
       <r>   -14.3547     0.0000     4.0000 </r>
       <r>   -14.2478     0.0000     4.0000 </r>
       <r>   -14.1409     0.0000     4.0000 </r>
       <r>   -14.0340     0.0000     4.0000 </r>
       <r>   -13.9272     0.0000     4.0000 </r>
       <r>   -13.8203     0.0000     4.0000 </r>
       <r>   -13.7134     0.0000     4.0000 </r>
       <r>   -13.6065     0.0000     4.0000 </r>
       <r>   -13.4996     0.0000     4.0000 </r>
       <r>   -13.3928     0.0000     4.0000 </r>
       <r>   -13.2859     0.0000     4.0000 </r>
       <r>   -13.1790     0.0000     4.0000 </r>
       <r>   -13.0721     0.0000     4.0000 </r>
       <r>   -12.9652     0.0000     4.0000 </r>
       <r>   -12.8583     0.0000     4.0000 </r>
       <r>   -12.7515     0.0000     4.0000 </r>
       <r>   -12.6446     0.0000     4.0000 </r>
       <r>   -12.5377     0.0000     4.0000 </r>
       <r>   -12.4308     0.0000     4.0000 </r>
       <r>   -12.3239     0.0000     4.0000 </r>
       <r>   -12.2170     0.0000     4.0000 </r>
       <r>   -12.1102     0.0000     4.0000 </r>
       <r>   -12.0033     0.0000     4.0000 </r>
       <r>   -11.8964     0.0000     4.0000 </r>
       <r>   -11.7895     0.0000     4.0000 </r>
       <r>   -11.6826     0.0000     4.0000 </r>
       <r>   -11.5758     0.0000     4.0000 </r>
       <r>   -11.4689     0.0000     4.0000 </r>
       <r>   -11.3620     0.0000     4.0000 </r>
       <r>   -11.2551     0.0000     4.0000 </r>
       <r>   -11.1482     0.0000     4.0000 </r>
       <r>   -11.0413     0.0000     4.0000 </r>
       <r>   -10.9345     0.0000     4.0000 </r>
       <r>   -10.8276     0.0000     4.0000 </r>
       <r>   -10.7207     0.0000     4.0000 </r>
       <r>   -10.6138     0.0000     4.0000 </r>
       <r>   -10.5069     0.0000     4.0000 </r>
       <r>   -10.4001     0.0000     4.0000 </r>
       <r>   -10.2932     0.0000     4.0000 </r>
       <r>   -10.1863     0.0000     4.0000 </r>
       <r>   -10.0794     0.0000     4.0000 </r>
       <r>    -9.9725     0.0000     4.0000 </r>
       <r>    -9.8656     0.0000     4.0000 </r>
       <r>    -9.7588     0.0000     4.0000 </r>
       <r>    -9.6519     0.0000     4.0000 </r>
       <r>    -9.5450     0.0000     4.0000 </r>
       <r>    -9.4381     0.0000     4.0000 </r>
       <r>    -9.3312     0.0001     4.0000 </r>
       <r>    -9.2243     0.0008     4.0001 </r>
       <r>    -9.1175     0.0034     4.0005 </r>
       <r>    -9.0106     0.0013     4.0006 </r>
       <r>    -8.9037    -0.0047     4.0001 </r>
       <r>    -8.7968     0.0617     4.0067 </r>
       <r>    -8.6899     0.0452     4.0115 </r>
       <r>    -8.5831     0.2203     4.0351 </r>
       <r>    -8.4762     3.4907     4.4081 </r>
       <r>    -8.3693     8.8077     5.3495 </r>
       <r>    -8.2624     7.9804     6.2025 </r>
       <r>    -8.1555     2.3858     6.4575 </r>
       <r>    -8.0486    -0.0623     6.4508 </r>
       <r>    -7.9418     0.5554     6.5102 </r>
       <r>    -7.8349     1.2359     6.6423 </r>
       <r>    -7.7280     1.3079     6.7821 </r>
       <r>    -7.6211     1.4463     6.9367 </r>
       <r>    -7.5142     1.6937     7.1177 </r>
       <r>    -7.4074     1.7663     7.3065 </r>
       <r>    -7.3005     2.3361     7.5562 </r>
       <r>    -7.1936     4.3188     8.0178 </r>
       <r>    -7.0867     6.4359     8.7056 </r>
       <r>    -6.9798     5.1582     9.2570 </r>
       <r>    -6.8729     1.8870     9.4586 </r>
       <r>    -6.7661     1.5781     9.6273 </r>
       <r>    -6.6592     3.6338    10.0157 </r>
       <r>    -6.5523     4.2219    10.4670 </r>
       <r>    -6.4454     4.2792    10.9243 </r>
       <r>    -6.3385     6.5833    11.6280 </r>
       <r>    -6.2316     8.3348    12.5188 </r>
       <r>    -6.1248     7.7996    13.3525 </r>
       <r>    -6.0179     8.2172    14.2307 </r>
       <r>    -5.9110    10.9282    15.3988 </r>
       <r>    -5.8041    13.9768    16.8926 </r>
       <r>    -5.6972    14.9870    18.4945 </r>
       <r>    -5.5904    17.3704    20.3511 </r>
       <r>    -5.4835    21.1554    22.6122 </r>
       <r>    -5.3766    21.1085    24.8683 </r>
       <r>    -5.2697    17.1189    26.6980 </r>
       <r>    -5.1628    14.4409    28.2415 </r>
       <r>    -5.0559    15.7410    29.9239 </r>
       <r>    -4.9491    16.5671    31.6946 </r>
       <r>    -4.8422    14.1370    33.2056 </r>
       <r>    -4.7353    12.3675    34.5275 </r>
       <r>    -4.6284    15.2516    36.1576 </r>
       <r>    -4.5215    19.2177    38.2117 </r>
       <r>    -4.4146    18.5353    40.1927 </r>
       <r>    -4.3078    15.9848    41.9012 </r>
       <r>    -4.2009    15.9734    43.6085 </r>
       <r>    -4.0940    15.6901    45.2855 </r>
       <r>    -3.9871    13.8778    46.7688 </r>
       <r>    -3.8802    14.3463    48.3022 </r>
       <r>    -3.7734    17.6406    50.1876 </r>
       <r>    -3.6665    18.8489    52.2022 </r>
       <r>    -3.5596    18.2388    54.1516 </r>
       <r>    -3.4527    19.8486    56.2731 </r>
       <r>    -3.3458    23.3846    58.7725 </r>
       <r>    -3.2389    27.8194    61.7459 </r>
       <r>    -3.1321    30.3454    64.9893 </r>
       <r>    -3.0252    28.8195    68.0696 </r>
       <r>    -2.9183    25.4041    70.7848 </r>
       <r>    -2.8114    21.9059    73.1262 </r>
       <r>    -2.7045    21.8499    75.4615 </r>
       <r>    -2.5977    25.8819    78.2278 </r>
       <r>    -2.4908    27.2201    81.1372 </r>
       <r>    -2.3839    22.8899    83.5837 </r>
       <r>    -2.2770    17.8425    85.4907 </r>
       <r>    -2.1701    15.9259    87.1929 </r>
       <r>    -2.0632    16.5704    88.9640 </r>
       <r>    -1.9564    17.3666    90.8202 </r>
       <r>    -1.8495    18.5670    92.8047 </r>
       <r>    -1.7426    21.5223    95.1050 </r>
       <r>    -1.6357    22.3217    97.4908 </r>
       <r>    -1.5288    19.1838    99.5412 </r>
       <r>    -1.4219    17.9616   101.4610 </r>
       <r>    -1.3151    20.2450   103.6248 </r>
       <r>    -1.2082    21.0494   105.8746 </r>
       <r>    -1.1013    21.1666   108.1370 </r>
       <r>    -0.9944    23.1969   110.6163 </r>
       <r>    -0.8875    22.4775   113.0187 </r>
       <r>    -0.7807    18.7098   115.0185 </r>
       <r>    -0.6738    17.2642   116.8637 </r>
       <r>    -0.5669    19.0730   118.9023 </r>
       <r>    -0.4600    19.7168   121.0097 </r>
       <r>    -0.3531    16.8158   122.8070 </r>
       <r>    -0.2462    15.2137   124.4330 </r>
       <r>    -0.1394    18.5382   126.4144 </r>
       <r>    -0.0325    24.4421   129.0269 </r>
       <r>     0.0744    28.1869   132.0395 </r>
       <r>     0.1813    26.1345   134.8329 </r>
       <r>     0.2882    21.3286   137.1125 </r>
       <r>     0.3950    16.9517   138.9243 </r>
       <r>     0.5019    10.7180   140.0699 </r>
       <r>     0.6088     5.5519   140.6633 </r>
       <r>     0.7157     5.0145   141.1993 </r>
       <r>     0.8226     4.8247   141.7149 </r>
       <r>     0.9295     4.2038   142.1642 </r>
       <r>     1.0363     5.2973   142.7304 </r>
       <r>     1.1432     5.1774   143.2838 </r>
       <r>     1.2501     3.0974   143.6149 </r>
       <r>     1.3570     2.5562   143.8881 </r>
       <r>     1.4639     4.1793   144.3348 </r>
       <r>     1.5708     4.9174   144.8604 </r>
       <r>     1.6776     3.5240   145.2370 </r>
       <r>     1.7845     2.4371   145.4975 </r>
       <r>     1.8914     3.2554   145.8454 </r>
       <r>     1.9983     4.2971   146.3047 </r>
       <r>     2.1052     3.8498   146.7162 </r>
       <r>     2.2120     3.6299   147.1042 </r>
       <r>     2.3189     4.6660   147.6029 </r>
       <r>     2.4258     4.4620   148.0798 </r>
       <r>     2.5327     3.4893   148.4527 </r>
       <r>     2.6396     3.9091   148.8705 </r>
       <r>     2.7465     4.3807   149.3387 </r>
       <r>     2.8533     4.5843   149.8287 </r>
       <r>     2.9602     4.9677   150.3597 </r>
       <r>     3.0671     5.4375   150.9409 </r>
       <r>     3.1740     5.1628   151.4927 </r>
       <r>     3.2809     4.0940   151.9302 </r>
       <r>     3.3877     4.4728   152.4083 </r>
       <r>     3.4946     6.2713   153.0786 </r>
       <r>     3.6015     6.1997   153.7412 </r>
       <r>     3.7084     4.0356   154.1726 </r>
       <r>     3.8153     2.8145   154.4734 </r>
       <r>     3.9222     2.7260   154.7647 </r>
       <r>     4.0290     1.8411   154.9615 </r>
       <r>     4.1359     0.7066   155.0370 </r>
       <r>     4.2428     0.8065   155.1233 </r>
       <r>     4.3497     1.4790   155.2813 </r>
       <r>     4.4566     1.1899   155.4085 </r>
       <r>     4.5635     0.3922   155.4504 </r>
       <r>     4.6703     0.6429   155.5191 </r>
       <r>     4.7772     1.4683   155.6761 </r>
       <r>     4.8841     1.6016   155.8473 </r>
       <r>     4.9910     0.8587   155.9390 </r>
       <r>     5.0979     0.2920   155.9702 </r>
       <r>     5.2047     0.2162   155.9934 </r>
       <r>     5.3116     0.0829   156.0022 </r>
       <r>     5.4185    -0.0164   156.0005 </r>
       <r>     5.5254    -0.0073   155.9997 </r>
       <r>     5.6323     0.0021   155.9999 </r>
       <r>     5.7392     0.0009   156.0000 </r>
       <r>     5.8460     0.0001   156.0000 </r>
       <r>     5.9529     0.0000   156.0000 </r>
       <r>     6.0598     0.0000   156.0000 </r>
       <r>     6.1667     0.0000   156.0000 </r>
       <r>     6.2736     0.0000   156.0000 </r>
       <r>     6.3805     0.0000   156.0000 </r>
       <r>     6.4873     0.0000   156.0000 </r>
       <r>     6.5942     0.0000   156.0000 </r>
       <r>     6.7011     0.0000   156.0000 </r>
       <r>     6.8080     0.0000   156.0000 </r>
       <r>     6.9149     0.0000   156.0000 </r>
       <r>     7.0217     0.0000   156.0000 </r>
       <r>     7.1286     0.0000   156.0000 </r>
      </set>
     </set>
    </array>
   </total>
  </dos>
 </calculation>
 <structure name="finalpos" >
  <crystal>
   <varray name="basis" >
    <v>       4.88428255       0.00000000       0.00000000 </v>
    <v>       2.44214127       4.22991277       0.00000000 </v>
    <v>       0.00000000       0.00000000      22.10741862 </v>
   </varray>
   <i name="volume">    456.74123834 </i>
   <varray name="rec_basis" >
    <v>       0.20473836      -0.11820575       0.00000000 </v>
    <v>      -0.00000000       0.23641149       0.00000000 </v>
    <v>       0.00000000       0.00000000       0.04523368 </v>
   </varray>
  </crystal>
  <varray name="positions" >
   <v>       0.30286415       0.49410690       0.00209390 </v>
   <v>       0.63619748       0.82744023       0.00209390 </v>
   <v>       0.96953081       0.16077357       0.00209390 </v>
   <v>       0.63619748       0.49410690       0.10624323 </v>
   <v>       0.96953081       0.82744023       0.10624323 </v>
   <v>       0.30286415       0.16077357       0.10624323 </v>
   <v>       0.30964892       0.49371243       0.30059344 </v>
   <v>       0.64674558       0.82521733       0.30809518 </v>
   <v>       0.97368384       0.16028804       0.30580179 </v>
   <v>       0.96512219       0.49383437       0.20530741 </v>
   <v>       0.31143739       0.83339993       0.20517229 </v>
   <v>       0.64127565       0.15631225       0.20317676 </v>
   <v>       0.86383292       0.05137747       0.40795986 </v>
   <v>       0.69235076       0.87679110       0.39876500 </v>
   <v>       0.07409272       0.87888707       0.42019223 </v>
  </varray>
  <varray name="selective"  type="logical" >
   <v type="logical" >  F  F  F </v>
   <v type="logical" >  F  F  F </v>
   <v type="logical" >  F  F  F </v>
   <v type="logical" >  F  F  F </v>
   <v type="logical" >  F  F  F </v>
   <v type="logical" >  F  F  F </v>
   <v type="logical" >  T  T  T </v>
   <v type="logical" >  T  T  T </v>
   <v type="logical" >  T  T  T </v>
   <v type="logical" >  T  T  T </v>
   <v type="logical" >  T  T  T </v>
   <v type="logical" >  T  T  T </v>
   <v type="logical" >  T  T  T </v>
   <v type="logical" >  T  T  T </v>
   <v type="logical" >  T  T  T </v>
  </varray>
  <nose>
   <v>      -3.00000000       0.00000000       0.00010000       0.00010000 </v>
  </nose>
 </structure>
</modeling>
